Foo Bar
SP        RHF                                                         CC-pV5Z
Number of atoms                            I                2
Charge                                     I                0
Multiplicity                               I                1
Number of electrons                        I               12
Number of alpha electrons                  I                6
Number of beta electrons                   I                6
Number of basis functions                  I              252
Number of independant functions            I              251
Number of point charges in /Mol/           I                0
Number of contracted shells                I               42
Highest angular momentum                   I                5
Largest degree of contraction              I               10
Number of primitive shells                 I               83
Pure/Cartesian d shells                    I                1
Pure/Cartesian f shells                    I                1
Virial Ratio                               R      1.998565905289998E+00
SCF Energy                                 R     -1.069870163610393E+02
Total Energy                               R     -1.069870163610393E+02
RMS Density                                R      2.359173992024543E-05
Atomic numbers                             I   N=           2
           3           9
Nuclear charges                            R   N=           2
  3.00000000E+00  9.00000000E+00
Current cartesian coordinates              R   N=           6
  0.00000000E+00  0.00000000E+00  1.88972613E-01  2.64561659E+00  3.77945227E-01
 -1.88972613E-01
Integer atomic weights                     I   N=           2
           7          19
Real atomic weights                        R   N=           2
  7.01600450E+00  1.89984033E+01
Shell types                                I   N=          42
           0           0           0           0           0           0
           1           1           1           1           1           2
           2           2           2           3           3           3
           4           4           5           0           0           0
           0           0           0           1           1           1
           1           1           2           2           2           2
           3           3           3           4           4           5
Number of primitives per shell             I   N=          42
          10          10           1           1           1           1
           3           1           1           1           1           1
           1           1           1           1           1           1
           1           1           1          10          10           1
           1           1           1           4           1           1
           1           1           1           1           1           1
           1           1           1           1           1           1
Shell to atom map                          I   N=          42
           1           1           1           1           1           1
           1           1           1           1           1           1
           1           1           1           1           1           1
           1           1           1           2           2           2
           2           2           2           2           2           2
           2           2           2           2           2           2
           2           2           2           2           2           2
Primitive exponents                        R   N=          83
  2.94930000E+04  4.41710100E+03  1.00522300E+03  2.84700900E+02  9.28654300E+01
  3.35117900E+01  1.30418000E+01  5.35753600E+00  2.27933800E+00  9.93990000E-01
  2.94930000E+04  4.41710100E+03  1.00522300E+03  2.84700900E+02  9.28654300E+01
  3.35117900E+01  1.30418000E+01  5.35753600E+00  2.27933800E+00  9.93990000E-01
  4.33471000E-01  9.55660000E-02  4.46570000E-02  2.06330000E-02  1.12500000E+01
  2.50000000E+00  6.50000000E-01  2.50000000E-01  1.00000000E-01  3.90000000E-02
  1.70000000E-02  5.50000000E-01  2.90000000E-01  1.40000000E-01  6.10000000E-02
  3.50000000E-01  2.20000000E-01  1.10000000E-01  3.20000000E-01  1.60000000E-01
  3.20000000E-01  2.11400000E+05  3.16600000E+04  7.20200000E+03  2.04000000E+03
  6.66400000E+02  2.42000000E+02  9.55300000E+01  4.02300000E+01  1.77200000E+01
  8.00500000E+00  2.11400000E+05  3.16600000E+04  7.20200000E+03  2.04000000E+03
  6.66400000E+02  2.42000000E+02  9.55300000E+01  4.02300000E+01  1.77200000E+01
  8.00500000E+00  3.53800000E+00  1.45800000E+00  5.88700000E-01  2.32400000E-01
  2.41900000E+02  5.71700000E+01  1.81300000E+01  6.62400000E+00  2.62200000E+00
  1.05700000E+00  4.17600000E-01  1.57400000E-01  7.76000000E+00  3.03200000E+00
  1.18500000E+00  4.63000000E-01  5.39800000E+00  2.07800000E+00  8.00000000E-01
  4.33800000E+00  1.51300000E+00  2.99500000E+00
Contraction coefficients                   R   N=          83
  2.00999819E-05  1.57449858E-04  8.25215924E-04  3.46948021E-03  1.24340721E-02
  3.87147985E-02  1.02924191E-01  2.22859666E-01  3.67199870E-01  3.86338402E-01
 -1.56373766E-05 -1.14674095E-04 -5.99432770E-04 -2.53846747E-03 -9.10095318E-03
 -2.87727730E-02 -7.78115860E-02 -1.78297368E-01 -3.23980381E-01 -4.99885230E-01
  1.00000000E+00  1.00000000E+00  1.00000000E+00  1.00000000E+00  2.95172317E-02
  2.23134073E-01  8.44615786E-01  1.00000000E+00  1.00000000E+00  1.00000000E+00
  1.00000000E+00  1.00000000E+00  1.00000000E+00  1.00000000E+00  1.00000000E+00
  1.00000000E+00  1.00000000E+00  1.00000000E+00  1.00000000E+00  1.00000000E+00
  1.00000000E+00  2.71684606E-05  2.10033099E-04  1.10345748E-03  4.63117759E-03
  1.64745365E-02  5.02741914E-02  1.28770144E-01  2.62822463E-01  3.80907042E-01
  2.92338906E-01 -1.71937246E-05 -1.34684176E-04 -6.99211467E-04 -2.95445501E-03
 -1.05540813E-02 -3.29918919E-02 -8.78685295E-02 -1.99366968E-01 -3.55314050E-01
 -4.30456358E-01  1.00000000E+00  1.00000000E+00  1.00000000E+00  1.00000000E+00
  6.36084276E-03  5.11279717E-02  2.41534277E-01  7.85767222E-01  1.00000000E+00
  1.00000000E+00  1.00000000E+00  1.00000000E+00  1.00000000E+00  1.00000000E+00
  1.00000000E+00  1.00000000E+00  1.00000000E+00  1.00000000E+00  1.00000000E+00
  1.00000000E+00  1.00000000E+00  1.00000000E+00
Coordinates of each shell                  R   N=         126
  0.00000000E+00  0.00000000E+00  1.88972613E-01  0.00000000E+00  0.00000000E+00
  1.88972613E-01  0.00000000E+00  0.00000000E+00  1.88972613E-01  0.00000000E+00
  0.00000000E+00  1.88972613E-01  0.00000000E+00  0.00000000E+00  1.88972613E-01
  0.00000000E+00  0.00000000E+00  1.88972613E-01  0.00000000E+00  0.00000000E+00
  1.88972613E-01  0.00000000E+00  0.00000000E+00  1.88972613E-01  0.00000000E+00
  0.00000000E+00  1.88972613E-01  0.00000000E+00  0.00000000E+00  1.88972613E-01
  0.00000000E+00  0.00000000E+00  1.88972613E-01  0.00000000E+00  0.00000000E+00
  1.88972613E-01  0.00000000E+00  0.00000000E+00  1.88972613E-01  0.00000000E+00
  0.00000000E+00  1.88972613E-01  0.00000000E+00  0.00000000E+00  1.88972613E-01
  0.00000000E+00  0.00000000E+00  1.88972613E-01  0.00000000E+00  0.00000000E+00
  1.88972613E-01  0.00000000E+00  0.00000000E+00  1.88972613E-01  0.00000000E+00
  0.00000000E+00  1.88972613E-01  0.00000000E+00  0.00000000E+00  1.88972613E-01
  0.00000000E+00  0.00000000E+00  1.88972613E-01  2.64561659E+00  3.77945227E-01
 -1.88972613E-01  2.64561659E+00  3.77945227E-01 -1.88972613E-01  2.64561659E+00
  3.77945227E-01 -1.88972613E-01  2.64561659E+00  3.77945227E-01 -1.88972613E-01
  2.64561659E+00  3.77945227E-01 -1.88972613E-01  2.64561659E+00  3.77945227E-01
 -1.88972613E-01  2.64561659E+00  3.77945227E-01 -1.88972613E-01  2.64561659E+00
  3.77945227E-01 -1.88972613E-01  2.64561659E+00  3.77945227E-01 -1.88972613E-01
  2.64561659E+00  3.77945227E-01 -1.88972613E-01  2.64561659E+00  3.77945227E-01
 -1.88972613E-01  2.64561659E+00  3.77945227E-01 -1.88972613E-01  2.64561659E+00
  3.77945227E-01 -1.88972613E-01  2.64561659E+00  3.77945227E-01 -1.88972613E-01
  2.64561659E+00  3.77945227E-01 -1.88972613E-01  2.64561659E+00  3.77945227E-01
 -1.88972613E-01  2.64561659E+00  3.77945227E-01 -1.88972613E-01  2.64561659E+00
  3.77945227E-01 -1.88972613E-01  2.64561659E+00  3.77945227E-01 -1.88972613E-01
  2.64561659E+00  3.77945227E-01 -1.88972613E-01  2.64561659E+00  3.77945227E-01
 -1.88972613E-01
Alpha Orbital Energies                     R   N=         251
 -2.61166192E+01 -2.41174494E+00 -1.39331874E+00 -5.15990259E-01 -4.91784425E-01
 -4.91784412E-01 -5.01716868E-03  2.89960604E-02  2.89960607E-02  4.41723514E-02
  4.70741679E-02  9.34365073E-02  9.34365077E-02  1.15673885E-01  1.51839251E-01
  1.51839251E-01  1.52047284E-01  1.74424615E-01  1.74424616E-01  1.86622108E-01
  2.34040721E-01  2.34040722E-01  2.82902415E-01  3.41130498E-01  3.67373759E-01
  3.69450301E-01  3.69450301E-01  3.71062405E-01  3.71062405E-01  3.73661022E-01
  3.73661022E-01  4.28986656E-01  4.28986657E-01  4.55863267E-01  4.55863267E-01
  4.92517185E-01  5.09401250E-01  5.09401252E-01  5.50063323E-01  5.92709379E-01
  6.71063640E-01  6.86412988E-01  6.86412989E-01  7.77465223E-01  7.77465223E-01
  7.78754128E-01  7.78754128E-01  7.86207796E-01  7.86207796E-01  8.33830933E-01
  8.43533533E-01  8.43533535E-01  8.65645445E-01  8.65645445E-01  8.89381007E-01
  8.89381007E-01  9.05457580E-01  9.24119329E-01  9.24119329E-01  9.29488513E-01
  9.29488513E-01  9.55590722E-01  9.55590723E-01  9.82239369E-01  1.08375790E+00
  1.08813527E+00  1.08813528E+00  1.17885101E+00  1.31901797E+00  1.42918102E+00
  1.43496598E+00  1.43496599E+00  1.60294724E+00  1.60294724E+00  1.63775879E+00
  1.63775879E+00  1.68956290E+00  1.71600947E+00  1.71600947E+00  1.72999642E+00
  1.75183995E+00  1.75183995E+00  1.82635109E+00  1.82635109E+00  1.83986128E+00
  1.83986128E+00  1.95732194E+00  1.97911555E+00  1.97911555E+00  1.99678083E+00
  1.99678083E+00  2.00352150E+00  2.00352150E+00  2.00818451E+00  2.00818451E+00
  2.00949656E+00  2.00949656E+00  2.06762824E+00  2.07084130E+00  2.07084130E+00
  2.07855342E+00  2.07855342E+00  2.14416056E+00  2.14416056E+00  2.26143607E+00
  2.31220852E+00  2.31220852E+00  2.34167117E+00  2.34167117E+00  2.38954898E+00
  2.38954898E+00  2.41247617E+00  2.45998211E+00  2.66295138E+00  2.81026169E+00
  2.82521595E+00  2.82521595E+00  2.82694133E+00  2.82694133E+00  2.89413889E+00
  2.97267513E+00  2.97267513E+00  3.21611587E+00  3.21611587E+00  3.28522013E+00
  3.28522013E+00  3.28549113E+00  3.28549113E+00  3.39851633E+00  3.51357832E+00
  3.51357832E+00  3.64989831E+00  3.68642445E+00  3.68642445E+00  3.81446093E+00
  3.81677529E+00  3.81677530E+00  3.91798711E+00  3.91798711E+00  4.18284564E+00
  4.35396215E+00  4.42562198E+00  4.42562198E+00  4.48295037E+00  4.48295037E+00
  4.55014388E+00  4.56334184E+00  4.68409639E+00  4.68409639E+00  4.69096007E+00
  4.69096008E+00  5.27619427E+00  5.33760396E+00  5.33760397E+00  6.26472607E+00
  7.25265906E+00  7.25265906E+00  7.46494168E+00  7.62298180E+00  7.71456403E+00
  7.71456403E+00  7.81215884E+00  7.81215886E+00  7.82528875E+00  7.82528875E+00
  7.92271873E+00  7.92271873E+00  8.07282460E+00  8.29121058E+00  8.29121093E+00
  8.31045197E+00  8.38973659E+00  8.38973660E+00  8.80986055E+00  8.80986055E+00
  9.09224239E+00  9.15894644E+00  9.15894644E+00  9.38448427E+00  9.38448427E+00
  9.94629242E+00  1.02993473E+01  1.02993473E+01  1.13245503E+01  1.31590191E+01
  1.31590191E+01  1.36065852E+01  1.48248921E+01  1.57095569E+01  1.57095569E+01
  1.65613297E+01  1.65613297E+01  1.73060984E+01  1.73060984E+01  1.78040009E+01
  1.78040009E+01  1.79694649E+01  1.85044487E+01  1.85044487E+01  1.85068132E+01
  1.85068132E+01  1.85089209E+01  1.85089209E+01  1.85139275E+01  1.85139275E+01
  1.85548616E+01  1.85548616E+01  1.85735789E+01  1.86620695E+01  1.86620695E+01
  2.07693490E+01  2.39321367E+01  2.39321367E+01  2.39960516E+01  2.39960516E+01
  2.40741991E+01  2.40741991E+01  2.42654643E+01  2.42654643E+01  2.46402462E+01
  2.52077353E+01  2.63085304E+01  2.63085304E+01  2.64575856E+01  2.67082379E+01
  2.81500352E+01  2.81500352E+01  2.82542453E+01  2.82542453E+01  2.83536983E+01
  2.83536983E+01  2.85178549E+01  3.29536866E+01  3.29536866E+01  3.32293371E+01
  3.32293371E+01  3.36477357E+01  4.62457518E+01  4.62457518E+01  4.70575033E+01
  5.01329008E+01  5.76848410E+01  5.76848410E+01  5.85010983E+01  5.85010983E+01
  5.91949830E+01  7.17946274E+01  7.17946274E+01  7.39466870E+01  9.04540583E+01
  2.79373870E+02
Alpha MO coefficients                      R   N=       63252
  2.97198268E-05  6.87765735E-05 -1.38566983E-04 -1.73563652E-04  1.60152679E-04
 -4.12348637E-06 -5.37133403E-06 -7.68567952E-07  7.68567879E-07 -6.70986198E-04
 -9.58888978E-05  9.58888954E-05  3.03109806E-04  4.34277143E-05 -4.34277056E-05
 -1.52721581E-06 -2.14550609E-07  2.14550868E-07  4.24295526E-07  5.98668506E-08
 -5.98669041E-08 -1.34090511E-05 -6.66546605E-06 -6.66546563E-06 -1.13910760E-06
  1.13910759E-06  1.62766232E-07 -7.87589729E-04  3.80835815E-05  3.80835812E-05
 -1.39034008E-04  1.39034008E-04  1.98617060E-05  5.97391680E-04  4.16256445E-05
  4.16256413E-05  9.36145266E-05 -9.36145264E-05 -1.33740903E-05 -4.62984454E-05
 -3.26697246E-05 -3.26697247E-05 -2.29443015E-06  2.29443015E-06  3.27772355E-07
 -3.82104226E-04  2.88147288E-05 -2.88147283E-05  7.93054331E-05 -1.00551500E-04
  1.00551501E-04  7.93054330E-05  1.13321381E-05 -1.13321379E-05  1.88401700E-05
  2.93202060E-04 -1.80188795E-05  1.80188755E-05 -4.84115493E-05  7.33508110E-05
 -7.33508127E-05 -4.84115493E-05 -6.94150023E-06  6.94149857E-06 -1.35209412E-05
 -7.05203107E-05 -1.21882918E-05  1.21882893E-05 -3.77693831E-05 -2.62583305E-06
  2.62583189E-06 -3.77693831E-05 -5.41231083E-06  5.41230967E-06 -4.69212680E-07
  2.90442386E-06 -2.56216060E-06  1.52040917E-06 -2.56216061E-06  2.90442274E-06
 -1.79366746E-05  6.56495651E-06 -6.56495655E-06  1.79366745E-05  4.05242761E-05
  1.40449969E-05  4.05242758E-05  6.02377407E-05 -6.02377406E-05 -1.88901325E-04
 -1.10421251E-05  3.07174497E-06 -6.43819244E-06  3.07174497E-06 -1.10421265E-05
  2.15009608E-05 -9.39421982E-06  9.39421979E-06 -2.15009609E-05 -6.22035042E-05
 -9.34373301E-07 -6.22035046E-05  9.62351091E-06 -9.62351096E-06 -1.52135275E-04
 -1.70176500E-05  5.25956676E-06 -7.15109578E-06  7.15109617E-06 -5.25956649E-06
  1.70176511E-05  3.67847769E-05  3.31797799E-06  2.14507964E-05  3.31797799E-06
  3.67847769E-05  1.25519486E-05 -6.34846356E-06  6.34846372E-06 -1.25519482E-05
  8.89040205E-07  8.77787182E-06  8.89040231E-07  4.96021591E-05 -4.96021587E-05
 -1.92782229E-04  9.57973446E-01  1.48486243E-03  5.12508807E-02  2.33614833E-02
  9.12494297E-03 -3.88763214E-04 -2.83161593E-04 -4.04515820E-05  4.04515820E-05
 -2.10763886E-04 -3.01088740E-05  3.01088741E-05  8.33696119E-04  1.19099304E-04
 -1.19099304E-04 -6.21963861E-04 -8.88582191E-05  8.88582185E-05  6.49905653E-05
  9.28466038E-06 -9.28466036E-06 -1.20687656E-04 -1.38600023E-05 -1.38600023E-05
 -1.79890213E-05  1.79890212E-05  2.56978137E-06 -2.55989716E-03 -3.05084302E-03
 -3.05084302E-03  8.26717932E-05 -8.26717930E-05 -1.18098992E-05 -1.23023705E-02
 -1.21310847E-02 -1.21310847E-02 -2.88434303E-05  2.88434303E-05  4.12023215E-06
  2.02540566E-04 -4.43084724E-05 -4.43084725E-05  4.15698248E-05 -4.15698247E-05
 -5.93879566E-06  6.58785745E-05  1.25656382E-05 -1.25656383E-05  3.89245639E-05
  1.32850075E-06 -1.32850078E-06  3.89245639E-05  5.56071874E-06 -5.56071876E-06
  7.12731570E-07 -7.33676833E-04 -1.17371568E-04  1.17371569E-04 -3.65790629E-04
 -3.54022832E-05  3.54022834E-05 -3.65790629E-04 -5.22559350E-05  5.22559351E-05
 -2.83841842E-06 -1.44946281E-04 -1.55168206E-05  1.55168208E-05 -4.92581815E-05
 -1.39973148E-05  1.39973148E-05 -4.92581814E-05 -7.03606861E-06  7.03606869E-06
  1.17236976E-06  4.02392089E-04  3.57706937E-06  2.35618310E-04  3.57706937E-06
  4.02392089E-04  2.50401535E-05 -1.11817230E-05  1.11817230E-05 -2.50401536E-05
  1.69215573E-04  1.42684769E-06  1.69215573E-04  2.41505526E-05 -2.41505527E-05
  1.79282365E-04  4.61474270E-03 -1.28363714E-06  2.70211707E-03 -1.28363715E-06
  4.61474270E-03 -8.98627288E-06  4.01296240E-06 -4.01296239E-06  8.98627289E-06
  2.72594827E-03 -5.13288211E-07  2.72594827E-03 -8.67341875E-06  8.67341876E-06
  4.69484032E-03 -4.66246568E-05  1.54280002E-05 -2.02742887E-05  2.02742886E-05
 -1.54280002E-05  4.66246567E-05  1.07994900E-04  9.01215165E-07  6.32346760E-05
  9.01215165E-07  1.07994900E-04 -1.49231205E-05  6.63597373E-06 -6.63597377E-06
  1.49231204E-05  1.29410489E-04  9.42141881E-07  1.29410489E-04 -7.06834358E-06
  7.06834350E-06  2.68400390E-04  8.98285848E-01  1.13922022E-02  1.21766662E-01
  3.40620013E-02  1.87637652E-02 -4.13699923E-04 -9.71646344E-03 -1.38806586E-03
  1.38806586E-03 -2.07852541E-02 -2.96929360E-03  2.96929360E-03 -5.35531132E-02
 -7.65054465E-03  7.65054465E-03 -9.91747678E-04 -1.41681527E-04  1.41681527E-04
  1.91853473E-04  2.74083485E-05 -2.74083485E-05 -3.88907604E-03 -2.86194878E-04
 -2.86194878E-04 -6.06700836E-04  6.06700836E-04  8.66717801E-05 -3.75700902E-02
 -8.08813591E-03 -8.08813591E-03 -4.96458090E-03  4.96458090E-03  7.09225624E-04
  2.10066900E-03 -5.12988922E-03 -5.12988922E-03  1.21756279E-03 -1.21756279E-03
 -1.73938043E-04 -4.48420243E-03 -4.72982974E-03 -4.72982974E-03  4.13616218E-05
 -4.13616218E-05 -5.90881531E-06 -1.48979238E-02  8.21219133E-04 -8.21219133E-04
  2.18611629E-03 -3.64487018E-03  3.64487018E-03  2.18611629E-03  3.12299930E-04
 -3.12299930E-04  6.66363212E-04  2.83433936E-02  4.30402081E-03 -4.30402081E-03
  1.34403220E-02  1.57805418E-03 -1.57805418E-03  1.34403220E-02  1.92006517E-03
 -1.92006517E-03  5.75925123E-05  1.52343022E-02  2.12648742E-03 -2.12648742E-03
  6.66337099E-03  1.01883281E-03 -1.01883281E-03  6.66337099E-03  9.51923594E-04
 -9.51923593E-04 -1.12670898E-05  1.11074068E-04 -9.97332291E-05  5.72662061E-05
 -9.97332291E-05  1.11074068E-04 -6.98133699E-04  2.49393423E-04 -2.49393423E-04
  6.98133699E-04  1.53826764E-03  6.10535616E-04  1.53826764E-03  2.67321631E-03
 -2.67321631E-03 -8.84709284E-03 -2.92275325E-03  5.18102887E-05 -1.71135880E-03
  5.18102887E-05 -2.92275325E-03  3.62671082E-04 -1.61946555E-04  1.61946555E-04
 -3.62671082E-04 -2.67308727E-03  2.06165732E-05 -2.67308727E-03  3.49529653E-04
 -3.49529653E-04 -6.15304411E-03  1.05256317E-03 -3.49101629E-04  4.58513769E-04
 -4.58513769E-04  3.49101629E-04 -1.05256317E-03 -2.44368901E-03 -1.16041875E-05
 -1.43533881E-03 -1.16041875E-05 -2.44368901E-03  3.89602869E-04 -2.04822629E-04
  2.04822629E-04 -3.89602869E-04 -3.20837806E-03  2.64838286E-04 -3.20837806E-03
  1.49766304E-03 -1.49766304E-03 -1.17508083E-02 -6.20362282E-04  1.44264957E-02
  9.92391298E-03  3.88166780E-03  3.66796927E-02  9.67548810E-03 -3.73478840E-03
 -5.33541213E-04  5.33541213E-04 -5.84552146E-03 -8.35074612E-04  8.35074612E-04
 -5.91029095E-03 -8.44327465E-04  8.44327465E-04 -4.06463978E-02 -5.80662488E-03
  5.80662488E-03 -1.43074154E-03 -2.04391730E-04  2.04391730E-04  3.63449833E-04
 -2.01650189E-05 -2.01650189E-05  6.45983455E-05 -6.45983454E-05 -9.22833544E-06
  1.39059461E-03  1.56818530E-03  1.56818530E-03 -2.99050321E-05  2.99050318E-05
  4.27217728E-06  1.00736918E-02  8.76172585E-03  8.76172585E-03  2.20926871E-04
 -2.20926871E-04 -3.15611077E-05  2.00276007E-02  8.09339805E-03  8.09339805E-03
  2.00964502E-03 -2.00964502E-03 -2.87092037E-04  1.52477145E-04 -1.70984488E-05
  1.70984488E-05 -4.84549028E-05  4.52420974E-05 -4.52420974E-05 -4.84549028E-05
 -6.92215482E-06  6.92215481E-06 -8.78413319E-06 -1.69875396E-03  1.47241777E-04
 -1.47241777E-04  4.10078746E-04 -4.64551631E-04  4.64551631E-04  4.10078746E-04
  5.85827715E-05 -5.85827715E-05  8.80925858E-05  6.70255337E-04  6.05065776E-04
 -6.05065776E-04  1.82772458E-03 -4.22215444E-04  4.22215444E-04  1.82772458E-03
  2.61103123E-04 -2.61103123E-04  1.15066600E-04  5.19725368E-06 -1.17199905E-05
  2.99299079E-06 -1.17199905E-05  5.19725368E-06 -8.20399580E-05  3.62825899E-05
 -3.62825899E-05  8.20399581E-05  2.18455821E-04 -9.99056861E-07  2.18455821E-04
 -6.02090701E-05  6.02090702E-05  6.50378587E-04 -2.60139878E-03  4.79890807E-06
 -1.52243417E-03  4.79890807E-06 -2.60139878E-03  3.35920016E-05 -8.64182248E-06
  8.64182249E-06 -3.35920016E-05 -1.57375355E-03 -6.43983613E-05 -1.57375355E-03
 -3.08847326E-04  3.08847326E-04 -1.35295865E-03  8.30094931E-05 -2.40763100E-05
  3.38931549E-05 -3.38931549E-05  2.40763099E-05 -8.30094931E-05 -1.68533667E-04
 -2.83824389E-05 -9.89548514E-05 -2.83824389E-05 -1.68533667E-04 -1.34654868E-04
  5.93778281E-05 -5.93778281E-05  1.34654868E-04  1.46308094E-04 -1.15493699E-05
  1.46308094E-04 -1.57037431E-04  1.57037431E-04  9.09408909E-04 -4.96004216E-02
  5.41948767E-02 -2.28815942E-02  1.45520971E-02  8.45082966E-04 -2.83758168E-05
  1.74676620E-02  2.49538026E-03 -2.49538026E-03 -4.11023791E-02 -5.87177653E-03
  5.87177653E-03  6.65969707E-02  9.51388177E-03 -9.51388177E-03  1.07487730E-03
  1.53554912E-04 -1.53554912E-04 -1.79366013E-04 -2.56239391E-05  2.56239391E-05
  1.36981295E-02 -8.56485310E-03 -8.56485310E-03  3.74894840E-03 -3.74894840E-03
 -5.35564179E-04 -6.06424745E-02  1.14089938E-02  1.14089938E-02 -1.21330223E-02
  1.21330223E-02  1.73328882E-03  5.24460222E-03  2.36492976E-02  2.36492976E-02
 -3.09923273E-03  3.09923273E-03  4.42748086E-04  8.12984242E-05  3.02720662E-05
  3.02720662E-05  8.59259101E-06 -8.59259092E-06 -1.22756113E-06 -2.00717968E-02
  2.27635103E-03 -2.27635103E-03  6.45516381E-03 -5.97889631E-03  5.97889631E-03
  6.45516381E-03  9.22166979E-04 -9.22166979E-04  1.16209649E-03  1.15553795E-02
 -3.95446719E-03  3.95446720E-03 -1.16482706E-02  5.85615223E-03 -5.85615223E-03
 -1.16482706E-02 -1.66404402E-03  1.66404402E-03 -1.26635464E-03 -1.15373861E-02
 -2.35404505E-03  2.35404505E-03 -7.27723216E-03 -9.26269608E-05  9.26269610E-05
 -7.27723216E-03 -1.03960846E-03  1.03960846E-03 -1.59466024E-04 -1.06421134E-02
 -6.71488853E-04 -6.24217471E-03 -6.71488853E-04 -1.06421134E-02 -4.70042076E-03
  2.01486771E-03 -2.01486771E-03  4.70042076E-03  5.72303936E-03  6.09326301E-04
  5.72303936E-03 -1.94730951E-05  1.94730939E-05  1.07653218E-02 -1.09465420E-02
 -2.41882348E-04 -6.40613038E-03 -2.41882348E-04 -1.09465420E-02 -1.69317485E-03
  7.85567894E-04 -7.85567895E-04  1.69317485E-03 -1.74106332E-03 -4.03897427E-04
 -1.74106332E-03 -3.21497768E-03  3.21497767E-03  1.13147575E-02 -2.16321133E-03
  6.83722597E-04 -9.19334672E-04  9.19334671E-04 -6.83722597E-04  2.16321133E-03
  4.78605211E-03  2.99010932E-04  2.79744348E-03  2.99010932E-04  4.78605211E-03
  8.56329595E-04 -4.28626466E-04  4.28626466E-04 -8.56329596E-04  2.11388578E-03
  6.07718069E-04  2.11388578E-03  3.42881268E-03 -3.42881268E-03 -9.56147735E-03
 -3.50381620E-03  3.33473514E-01  1.53006468E-01  2.08964875E-01  3.81126925E-01
  8.13715798E-02 -5.50113759E-03 -7.85876741E-04  7.85876741E-04 -9.02791683E-03
 -1.28970229E-03  1.28970229E-03 -8.35961139E-03 -1.19423046E-03  1.19423046E-03
 -6.67304989E-02 -9.53292824E-03  9.53292824E-03  8.31854667E-03  1.18836392E-03
 -1.18836392E-03  1.98311051E-03  1.48250323E-03  1.48250323E-03  8.42991414E-05
 -8.42991414E-05 -1.20426575E-05  2.19791571E-02  2.28132673E-02  2.28132673E-02
 -1.40458603E-04  1.40458603E-04  2.00657130E-05  1.38594417E-01  1.37569293E-01
  1.37569293E-01  1.72623640E-04 -1.72623640E-04 -2.46621042E-05  7.05977771E-02
  4.92252993E-02  4.92252993E-02  3.59899316E-03 -3.59899316E-03 -5.14142367E-04
 -3.94046041E-04  5.11443877E-05 -5.11443877E-05  1.46093556E-04 -1.23270907E-04
  1.23270907E-04  1.46093556E-04  2.08705191E-05 -2.08705191E-05  2.42727152E-05
  8.48436824E-04 -5.59122134E-04  5.59122134E-04 -1.66159013E-03  6.75385400E-04
 -6.75385400E-04 -1.66159013E-03 -2.37369943E-04  2.37369943E-04 -1.53703566E-04
 -5.14921772E-04  6.84352085E-04 -6.84352085E-04  2.04350092E-03 -7.24917288E-04
  7.24917289E-04  2.04350092E-03  2.91928732E-04 -2.91928732E-04  1.71230848E-04
  2.99285622E-03 -1.68065989E-05  1.75237390E-03 -1.68065989E-05  2.99285622E-03
 -1.17647068E-04  5.21023230E-05 -5.21023230E-05  1.17647068E-04  2.06178160E-03
 -2.18670909E-06  2.06178160E-03 -9.02216456E-05  9.02216457E-05  3.93566059E-03
 -3.64760176E-02 -3.36632622E-06 -2.13577092E-02 -3.36632622E-06 -3.64760176E-02
 -2.35700130E-05  1.42554041E-05 -1.42554040E-05  2.35700131E-05 -2.12730551E-02
 -4.02433615E-05 -2.12730551E-02 -2.22916037E-04  2.22916038E-04 -3.53580658E-02
 -2.78267195E-04  8.73783384E-05 -1.17912965E-04  1.17912965E-04 -8.73783384E-05
  2.78267195E-04  6.11648359E-04  4.27831790E-05  3.57949400E-04  4.27831790E-05
  6.11648359E-04  1.36151109E-04 -6.38238906E-05  6.38238906E-05 -1.36151109E-04
  2.25590405E-04  5.48802833E-05  2.25590405E-04  3.55578209E-04 -3.55578209E-04
 -9.92795522E-04  1.11347210E-02 -1.25667898E-01  1.30543983E-01 -2.40546357E-01
  2.60665477E-02 -3.16512315E-04 -4.25472661E-02 -6.07818307E-03  6.07818307E-03
  3.86876662E-02  5.52655480E-03 -5.52655481E-03 -3.43538137E-02 -4.90682085E-03
  4.90682086E-03  1.32224119E-02  1.88895233E-03 -1.88895233E-03 -7.18554137E-04
 -1.02659146E-04  1.02659146E-04 -3.03626699E-02  1.84745359E-02  1.84745359E-02
 -8.22389893E-03  8.22389893E-03  1.17484273E-03  1.71998102E-01  1.21405908E-02
  1.21405908E-02  2.69190255E-02 -2.69190255E-02 -3.84557586E-03  9.76914582E-02
  1.56875936E-03  1.56875937E-03  1.61866234E-02 -1.61866234E-02 -2.31237659E-03
  1.47596438E-02 -5.69316296E-03 -5.69316296E-03  3.44413275E-03 -3.44413275E-03
 -4.92019201E-04  5.57096726E-02 -4.46991492E-03  4.46991492E-03 -1.23720725E-02
  1.49071586E-02 -1.49071586E-02 -1.23720725E-02 -1.76741790E-03  1.76741790E-03
 -2.80789723E-03 -2.49718575E-02  8.58032734E-03 -8.58032735E-03  2.52772848E-02
 -1.26875059E-02  1.26875059E-02  2.52772848E-02  3.61088364E-03 -3.61088364E-03
  2.74454878E-03  1.38235110E-02 -7.99484340E-04  7.99484336E-04 -2.14012340E-03
  3.41587011E-03 -3.41587011E-03 -2.14012340E-03 -3.05851736E-04  3.05851735E-04
 -6.26715794E-04  2.18789922E-02  1.58854895E-03  1.28384083E-02  1.58854895E-03
  2.18789922E-02  1.11198384E-02 -4.75161295E-03  4.75161295E-03 -1.11198384E-02
 -1.53787691E-02 -1.59773233E-03 -1.53787691E-02 -7.57954525E-04  7.57954524E-04
 -2.51178341E-02  2.26299122E-02  7.31986354E-04  1.32494032E-02  7.31986354E-04
  2.26299122E-02  5.12389942E-03 -2.30212204E-03  2.30212204E-03 -5.12389942E-03
 -4.21526387E-04  4.38360610E-04 -4.21526386E-04  5.69514445E-03 -5.69514445E-03
 -2.64402190E-02  5.47573046E-03 -1.74362780E-03  2.33536932E-03 -2.33536932E-03
  1.74362780E-03 -5.47573046E-03 -1.22055642E-02 -6.55965464E-04 -7.13110896E-03
 -6.55965464E-04 -1.22055642E-02 -1.56005605E-03  8.31288257E-04 -8.31288257E-04
  1.56005605E-03 -6.69543763E-03 -1.63120259E-03 -6.69543763E-03 -8.62998709E-03
  8.62998709E-03  2.13834580E-02  4.91116609E-04  2.24722046E-02  1.76073340E-03
  2.86352515E-02 -7.49943308E-02  5.87479564E-02  1.44579814E-01  2.06542756E-02
 -2.06542756E-02  2.43240519E-01  3.47486737E-02 -3.47486737E-02  3.20287458E-01
  4.57553905E-02 -4.57553905E-02  4.16063163E-01  5.94376093E-02 -5.94376092E-02
  1.55177656E-01  2.21682544E-02 -2.21682544E-02 -4.90974649E-04  4.18412353E-04
  4.18412353E-04 -1.53134970E-04  1.53134970E-04  2.18766059E-05  2.59730678E-04
 -1.59097193E-04 -1.59097193E-04  7.05269813E-05 -7.05269812E-05 -1.00761227E-05
 -2.73099322E-03  2.40505108E-03  2.40505108E-03 -8.64877573E-04  8.64877573E-04
  1.23554343E-04 -6.84832701E-02 -2.25366341E-02 -2.25366341E-02 -7.73712453E-03
  7.73712453E-03  1.10530253E-03  9.96054878E-04 -3.86490604E-05  3.86490604E-05
 -9.73904005E-05  2.28847139E-04 -2.28847139E-04 -9.73904005E-05 -1.39126761E-05
  1.39126761E-05 -4.08793446E-05  3.46105757E-03  1.64896810E-03 -1.64896810E-03
  5.01149545E-03 -8.33035280E-04  8.33035280E-04  5.01149545E-03  7.15927326E-04
 -7.15927326E-04  2.60836003E-04  5.69077658E-03 -6.23847329E-04  6.23847329E-04
 -1.76555398E-03  1.67547629E-03 -1.67547629E-03 -1.76555398E-03 -2.52219456E-04
  2.52219456E-04 -3.24612177E-04  6.90546392E-04  2.43057400E-05  4.04414544E-04
  2.43057400E-05  6.90546393E-04  1.70138215E-04 -7.55013030E-05  7.55013030E-05
 -1.70138216E-04 -4.39476827E-05  4.75020919E-06 -4.39476827E-05  1.38646231E-04
 -1.38646231E-04 -7.09970742E-04  3.60304515E-04 -1.49240126E-05  2.09998791E-04
 -1.49240126E-05  3.60304515E-04 -1.04467261E-04  3.88262232E-05 -3.88262232E-05
  1.04467261E-04  4.40568439E-04  7.56379228E-05  4.40568439E-04  3.19112982E-04
 -3.19112982E-04 -6.13231343E-04  5.84807359E-04 -1.86011858E-04  2.49359287E-04
 -2.49359287E-04  1.86011858E-04 -5.84807359E-04 -1.30208656E-03 -7.10689078E-05
 -7.61962271E-04 -7.10689078E-05 -1.30208656E-03 -1.72679896E-04  8.30550926E-05
 -8.30550926E-05  1.72679896E-04 -7.44244799E-04 -9.96699475E-05 -7.44244799E-04
 -5.88385703E-04  5.88385703E-04  9.48782840E-04 -6.16894323E-13 -8.07367846E-13
  3.67770003E-11 -7.09456699E-11  2.15173242E-11 -1.48489201E-12 -2.90756091E-10
  1.22990808E-02  1.22990788E-02 -6.66416646E-10  2.99473792E-02  2.99473742E-02
 -7.32614167E-11  3.95350001E-03  3.95349938E-03 -2.15625726E-10  9.14325520E-03
  9.14325369E-03  2.15323776E-11 -9.15448112E-04 -9.15447961E-04 -4.59756835E-10
  2.78445881E-03 -2.78445835E-03  1.12532563E-02  1.12532546E-02 -2.65851065E-10
  4.31365170E-10 -2.24716360E-03  2.24716324E-03 -9.08180290E-03 -9.08180148E-03
  2.13637755E-10 -2.50291846E-10  1.61659305E-03 -1.61659276E-03  6.53338461E-03
  6.53338357E-03 -1.55317159E-10 -4.09424199E-10  2.45309569E-03 -2.45309529E-03
  9.91406821E-03  9.91406663E-03 -2.34316258E-10  1.02128991E-11 -1.65049752E-03
 -1.65049724E-03  2.85391006E-04  2.40359158E-04  2.40359123E-04 -2.85390932E-04
 -7.78895041E-04 -7.78894923E-04 -2.75693035E-11 -8.16060250E-10  1.66449305E-03
  1.66449276E-03  4.25394675E-03  1.53293447E-02  1.53293423E-02 -4.25394609E-03