Foo Bar
SP        RHF                                                         CC-pV5Z
Number of atoms                            I                2
Charge                                     I                0
Multiplicity                               I                1
Number of electrons                        I               12
Number of alpha electrons                  I                6
Number of beta electrons                   I                6
Number of basis functions                  I              182
Number of independant functions            I              182
Number of point charges in /Mol/           I                0
Number of contracted shells                I               42
Highest angular momentum                   I                5
Largest degree of contraction              I               10
Number of primitive shells                 I               83
Pure/Cartesian d shells                    I                0
Pure/Cartesian f shells                    I                0
Virial Ratio                               R      1.998573798401019E+00
SCF Energy                                 R     -1.069869282703390E+02
Total Energy                               R     -1.069869282703390E+02
RMS Density                                R      9.798431219634114E-06
Atomic numbers                             I   N=           2
           3           9
Nuclear charges                            R   N=           2
  3.00000000E+00  9.00000000E+00
Current cartesian coordinates              R   N=           6
  0.00000000E+00  0.00000000E+00  1.88972613E-01  2.64561659E+00  3.77945227E-01
 -1.88972613E-01
Integer atomic weights                     I   N=           2
           7          19
Real atomic weights                        R   N=           2
  7.01600450E+00  1.89984033E+01
Shell types                                I   N=          42
           0           0           0           0           0           0
           1           1           1           1           1          -2
          -2          -2          -2          -3          -3          -3
          -4          -4          -5           0           0           0
           0           0           0           1           1           1
           1           1          -2          -2          -2          -2
          -3          -3          -3          -4          -4          -5
Number of primitives per shell             I   N=          42
          10          10           1           1           1           1
           3           1           1           1           1           1
           1           1           1           1           1           1
           1           1           1          10          10           1
           1           1           1           4           1           1
           1           1           1           1           1           1
           1           1           1           1           1           1
Shell to atom map                          I   N=          42
           1           1           1           1           1           1
           1           1           1           1           1           1
           1           1           1           1           1           1
           1           1           1           2           2           2
           2           2           2           2           2           2
           2           2           2           2           2           2
           2           2           2           2           2           2
Primitive exponents                        R   N=          83
  2.94930000E+04  4.41710100E+03  1.00522300E+03  2.84700900E+02  9.28654300E+01
  3.35117900E+01  1.30418000E+01  5.35753600E+00  2.27933800E+00  9.93990000E-01
  2.94930000E+04  4.41710100E+03  1.00522300E+03  2.84700900E+02  9.28654300E+01
  3.35117900E+01  1.30418000E+01  5.35753600E+00  2.27933800E+00  9.93990000E-01
  4.33471000E-01  9.55660000E-02  4.46570000E-02  2.06330000E-02  1.12500000E+01
  2.50000000E+00  6.50000000E-01  2.50000000E-01  1.00000000E-01  3.90000000E-02
  1.70000000E-02  5.50000000E-01  2.90000000E-01  1.40000000E-01  6.10000000E-02
  3.50000000E-01  2.20000000E-01  1.10000000E-01  3.20000000E-01  1.60000000E-01
  3.20000000E-01  2.11400000E+05  3.16600000E+04  7.20200000E+03  2.04000000E+03
  6.66400000E+02  2.42000000E+02  9.55300000E+01  4.02300000E+01  1.77200000E+01
  8.00500000E+00  2.11400000E+05  3.16600000E+04  7.20200000E+03  2.04000000E+03
  6.66400000E+02  2.42000000E+02  9.55300000E+01  4.02300000E+01  1.77200000E+01
  8.00500000E+00  3.53800000E+00  1.45800000E+00  5.88700000E-01  2.32400000E-01
  2.41900000E+02  5.71700000E+01  1.81300000E+01  6.62400000E+00  2.62200000E+00
  1.05700000E+00  4.17600000E-01  1.57400000E-01  7.76000000E+00  3.03200000E+00
  1.18500000E+00  4.63000000E-01  5.39800000E+00  2.07800000E+00  8.00000000E-01
  4.33800000E+00  1.51300000E+00  2.99500000E+00
Contraction coefficients                   R   N=          83
  2.00999819E-05  1.57449858E-04  8.25215924E-04  3.46948021E-03  1.24340721E-02
  3.87147985E-02  1.02924191E-01  2.22859666E-01  3.67199870E-01  3.86338402E-01
 -1.56373766E-05 -1.14674095E-04 -5.99432770E-04 -2.53846747E-03 -9.10095318E-03
 -2.87727730E-02 -7.78115860E-02 -1.78297368E-01 -3.23980381E-01 -4.99885230E-01
  1.00000000E+00  1.00000000E+00  1.00000000E+00  1.00000000E+00  2.95172317E-02
  2.23134073E-01  8.44615786E-01  1.00000000E+00  1.00000000E+00  1.00000000E+00
  1.00000000E+00  1.00000000E+00  1.00000000E+00  1.00000000E+00  1.00000000E+00
  1.00000000E+00  1.00000000E+00  1.00000000E+00  1.00000000E+00  1.00000000E+00
  1.00000000E+00  2.71684606E-05  2.10033099E-04  1.10345748E-03  4.63117759E-03
  1.64745365E-02  5.02741914E-02  1.28770144E-01  2.62822463E-01  3.80907042E-01
  2.92338906E-01 -1.71937246E-05 -1.34684176E-04 -6.99211467E-04 -2.95445501E-03
 -1.05540813E-02 -3.29918919E-02 -8.78685295E-02 -1.99366968E-01 -3.55314050E-01
 -4.30456358E-01  1.00000000E+00  1.00000000E+00  1.00000000E+00  1.00000000E+00
  6.36084276E-03  5.11279717E-02  2.41534277E-01  7.85767222E-01  1.00000000E+00
  1.00000000E+00  1.00000000E+00  1.00000000E+00  1.00000000E+00  1.00000000E+00
  1.00000000E+00  1.00000000E+00  1.00000000E+00  1.00000000E+00  1.00000000E+00
  1.00000000E+00  1.00000000E+00  1.00000000E+00
Coordinates of each shell                  R   N=         126
  0.00000000E+00  0.00000000E+00  1.88972613E-01  0.00000000E+00  0.00000000E+00
  1.88972613E-01  0.00000000E+00  0.00000000E+00  1.88972613E-01  0.00000000E+00
  0.00000000E+00  1.88972613E-01  0.00000000E+00  0.00000000E+00  1.88972613E-01
  0.00000000E+00  0.00000000E+00  1.88972613E-01  0.00000000E+00  0.00000000E+00
  1.88972613E-01  0.00000000E+00  0.00000000E+00  1.88972613E-01  0.00000000E+00
  0.00000000E+00  1.88972613E-01  0.00000000E+00  0.00000000E+00  1.88972613E-01
  0.00000000E+00  0.00000000E+00  1.88972613E-01  0.00000000E+00  0.00000000E+00
  1.88972613E-01  0.00000000E+00  0.00000000E+00  1.88972613E-01  0.00000000E+00
  0.00000000E+00  1.88972613E-01  0.00000000E+00  0.00000000E+00  1.88972613E-01
  0.00000000E+00  0.00000000E+00  1.88972613E-01  0.00000000E+00  0.00000000E+00
  1.88972613E-01  0.00000000E+00  0.00000000E+00  1.88972613E-01  0.00000000E+00
  0.00000000E+00  1.88972613E-01  0.00000000E+00  0.00000000E+00  1.88972613E-01
  0.00000000E+00  0.00000000E+00  1.88972613E-01  2.64561659E+00  3.77945227E-01
 -1.88972613E-01  2.64561659E+00  3.77945227E-01 -1.88972613E-01  2.64561659E+00
  3.77945227E-01 -1.88972613E-01  2.64561659E+00  3.77945227E-01 -1.88972613E-01
  2.64561659E+00  3.77945227E-01 -1.88972613E-01  2.64561659E+00  3.77945227E-01
 -1.88972613E-01  2.64561659E+00  3.77945227E-01 -1.88972613E-01  2.64561659E+00
  3.77945227E-01 -1.88972613E-01  2.64561659E+00  3.77945227E-01 -1.88972613E-01
  2.64561659E+00  3.77945227E-01 -1.88972613E-01  2.64561659E+00  3.77945227E-01
 -1.88972613E-01  2.64561659E+00  3.77945227E-01 -1.88972613E-01  2.64561659E+00
  3.77945227E-01 -1.88972613E-01  2.64561659E+00  3.77945227E-01 -1.88972613E-01
  2.64561659E+00  3.77945227E-01 -1.88972613E-01  2.64561659E+00  3.77945227E-01
 -1.88972613E-01  2.64561659E+00  3.77945227E-01 -1.88972613E-01  2.64561659E+00
  3.77945227E-01 -1.88972613E-01  2.64561659E+00  3.77945227E-01 -1.88972613E-01
  2.64561659E+00  3.77945227E-01 -1.88972613E-01  2.64561659E+00  3.77945227E-01
 -1.88972613E-01
Alpha Orbital Energies                     R   N=         182
 -2.61166277E+01 -2.41183215E+00 -1.39334012E+00 -5.15995774E-01 -4.91796401E-01
 -4.91796385E-01 -3.45604173E-03  3.10945870E-02  3.10945873E-02  4.65766227E-02
  7.29195101E-02  1.04575452E-01  1.04575453E-01  1.36554189E-01  1.68355308E-01
  1.68355308E-01  1.95915704E-01  1.95915706E-01  2.05541104E-01  2.74597283E-01
  2.92139685E-01  2.92139686E-01  3.89537513E-01  4.00715793E-01  4.00715793E-01
  4.01298851E-01  4.01298851E-01  4.07363020E-01  4.07363020E-01  4.07502209E-01
  5.15506061E-01  5.15506061E-01  6.01112312E-01  6.07527939E-01  6.07527942E-01
  7.23590121E-01  7.31788485E-01  7.31788487E-01  7.45266446E-01  7.45266447E-01
  7.78743227E-01  7.78743227E-01  7.80838937E-01  7.80838937E-01  7.88441903E-01
  7.88441903E-01  7.92390465E-01  9.03570221E-01  9.03570221E-01  9.40239507E-01
  9.74473283E-01  1.06296851E+00  1.06296851E+00  1.06717695E+00  1.06717695E+00
  1.18071705E+00  1.18071705E+00  1.18772538E+00  1.26266023E+00  1.26266023E+00
  1.33220573E+00  1.33220573E+00  1.52335734E+00  1.61982987E+00  1.79243255E+00
  1.79243255E+00  1.86613092E+00  1.86613092E+00  1.87845851E+00  1.99576269E+00
  1.99576269E+00  2.00350101E+00  2.00350101E+00  2.00635298E+00  2.00635298E+00
  2.00947449E+00  2.00947449E+00  2.07081809E+00  2.07081809E+00  2.07454208E+00
  2.07454208E+00  2.09645889E+00  2.09645889E+00  2.15952546E+00  2.15952546E+00
  2.16235038E+00  2.29922488E+00  2.29922488E+00  2.31950092E+00  2.31950092E+00
  2.32552031E+00  2.40666863E+00  2.40666864E+00  2.42812423E+00  2.42812423E+00
  2.47873792E+00  2.50474832E+00  2.50474832E+00  2.61983121E+00  2.84802199E+00
  2.84802199E+00  2.84974774E+00  2.84974774E+00  2.95169021E+00  3.65242463E+00
  3.65242463E+00  3.72354882E+00  3.72354882E+00  3.74077092E+00  4.12242634E+00
  4.12242635E+00  4.30292997E+00  4.53483581E+00  4.53483581E+00  4.72552305E+00
  4.72552305E+00  4.79490532E+00  5.05772228E+00  5.07068609E+00  5.07068609E+00
  6.86111742E+00  6.86111742E+00  7.37713284E+00  7.81211287E+00  7.81211287E+00
  7.90747082E+00  7.90747082E+00  7.92882851E+00  7.92882851E+00  8.01444863E+00
  8.01444863E+00  8.12228065E+00  9.76715419E+00  9.76715419E+00  1.01689782E+01
  1.01689782E+01  1.02691242E+01  1.04847780E+01  1.04847780E+01  1.07241273E+01
  1.11793093E+01  1.11793093E+01  1.13823651E+01  1.14410914E+01  1.14410914E+01
  1.38268791E+01  1.85001972E+01  1.85001972E+01  1.85030127E+01  1.85030127E+01
  1.85047051E+01  1.85047051E+01  1.85067684E+01  1.85067684E+01  1.85088590E+01
  1.85088590E+01  1.85107263E+01  1.99985077E+01  1.99985077E+01  2.04987192E+01
  2.39320763E+01  2.39320763E+01  2.39800330E+01  2.39800330E+01  2.39943271E+01
  2.39943271E+01  2.40335363E+01  2.40335363E+01  2.40675824E+01  2.56059119E+01
  2.56059119E+01  2.59139522E+01  2.59139522E+01  2.59368031E+01  2.61530168E+01
  2.61530168E+01  2.90864514E+01  2.90864514E+01  2.92654409E+01  2.92654409E+01
  2.92753167E+01  7.81602652E+01
Alpha MO coefficients                      R   N=       33124
 -1.24089107E-04 -1.18590809E-04 -3.80930914E-05  2.44021471E-04 -3.17383232E-05
 -2.60470961E-06  7.32934289E-06  1.04704775E-06 -1.04704775E-06 -6.11277356E-05
 -8.73252162E-06  8.73252159E-06  2.11325806E-04  3.01894067E-05 -3.01894067E-05
 -6.68693765E-05 -9.55276944E-06  9.55276946E-06  1.84775664E-05  2.63965281E-06
 -2.63965282E-06 -8.66012262E-07 -4.37492434E-07 -6.24989493E-08  1.49997724E-06
  4.37492439E-07  5.66456401E-05  2.86163144E-05  4.08804213E-06 -9.81131267E-05
 -2.86163145E-05 -4.99775665E-05 -2.52477464E-05 -3.60682396E-06  8.65636845E-05
  2.52477464E-05  7.49805777E-06  3.78788005E-06  5.41125704E-07 -1.29870170E-05
 -3.78788005E-06 -1.33557063E-05  3.55882627E-05  5.08403622E-06  1.67761393E-05
  4.89303892E-06 -4.59442496E-05 -2.08318582E-05 -2.37645540E-06  6.33242732E-06
  9.04631603E-07  2.98507295E-06  8.70642408E-07 -8.17512851E-06 -3.70672938E-06
  2.80545757E-06 -7.47555470E-06 -1.06793629E-06 -3.52394253E-06 -1.02781772E-06
  9.65089963E-06  4.37587420E-06 -1.25727125E-05 -1.28830303E-05 -1.84043212E-06
  1.88254863E-05  5.49076560E-06  1.07392031E-05  4.86932569E-06 -2.48566115E-05
 -1.58478531E-05 -1.58562480E-06 -1.62476072E-06 -2.32107927E-07  2.37420181E-06
  6.92475898E-07  1.35438970E-06  6.14099853E-07 -3.13482541E-06 -1.99867357E-06
  3.97148654E-06 -5.78560857E-06 -8.26515588E-07 -5.28121708E-06 -1.54035420E-06
  6.32777710E-06  2.86911632E-06  4.18458936E-06  2.66797174E-06 -8.41929684E-06
 -7.22909337E-06  9.57246271E-01  4.51466312E-04  6.38011754E-02  9.27252653E-04
  1.91764331E-03 -4.81129517E-04 -2.61183688E-04 -3.73119142E-05  3.73119142E-05
  3.38118485E-05  4.83025106E-06 -4.83025106E-06 -1.01500743E-04 -1.45000935E-05
  1.45000935E-05 -5.65128782E-05 -8.07329254E-06  8.07329262E-06  1.31072849E-04
  1.87246866E-05 -1.87246865E-05  2.93002826E-06  1.48020780E-06  2.11440159E-07
 -5.07495782E-06 -1.48020780E-06 -1.78882601E-05 -9.03685115E-06 -1.29093266E-06
  3.09833754E-05  9.03685115E-06 -1.48004517E-05 -7.47691162E-06 -1.06813188E-06
  2.56351344E-05  7.47691163E-06 -5.29270404E-06 -2.67379016E-06 -3.81965518E-07
  9.16723231E-06  2.67379012E-06 -9.63672976E-07  2.56784105E-06  3.66833233E-07
  1.21046929E-06  3.53052399E-07 -3.31506854E-06 -1.50310841E-06  4.37602354E-07
 -1.16605069E-06 -1.66577882E-07 -5.49671532E-07 -1.60322170E-07  1.50536497E-06
  6.82558730E-07 -2.77053393E-06  7.38249386E-06  1.05464324E-06  3.48007626E-06
  1.01502195E-06 -9.53075859E-06 -4.32140216E-06  1.19381194E-07  1.22327530E-07
  1.74756706E-08 -1.78752902E-07 -5.21363230E-08 -1.01971534E-07 -4.62362781E-08
  2.36020017E-07  1.50479308E-07  5.99591500E-07  6.14390983E-07  8.77695485E-08
 -8.97783810E-07 -2.61853666E-07 -5.12151308E-07 -2.32216398E-07  1.18540808E-06
  7.55782971E-07  3.44842068E-08 -5.02368058E-08 -7.17682509E-09 -4.58567139E-08
 -1.33754659E-08  5.49451360E-08  2.49129380E-08  3.63351911E-08  2.31669864E-08
 -7.31055772E-08 -6.27700849E-08  8.94034994E-01  6.06559237E-03  1.43599639E-01
  2.92486843E-03 -1.46742998E-03  4.24919246E-04 -1.10339019E-02 -1.57627204E-03
  1.57627204E-03 -3.14020491E-03 -4.48600744E-04  4.48600744E-04 -9.93245125E-04
 -1.41892157E-04  1.41892157E-04  3.38167962E-04  4.83097072E-05 -4.83097071E-05
 -9.32524177E-05 -1.33217733E-05  1.33217733E-05  5.68054071E-04  2.86970444E-04
  4.09958502E-05 -9.83898512E-04 -2.86970444E-04  2.38697972E-05  1.20585402E-05
  1.72255482E-06 -4.13437015E-05 -1.20585402E-05  4.25744197E-04  2.15078103E-04
  3.07254414E-05 -7.37410579E-04 -2.15078103E-04 -6.75630875E-05 -3.41316242E-05
 -4.87596039E-06  1.17022700E-04  3.41316242E-05 -5.53333314E-06  1.47443609E-05
  2.10633989E-06  6.95043405E-06  2.02721109E-06 -1.90348880E-05 -8.63073818E-06
 -4.47291232E-05  1.19187355E-04  1.70267713E-05  5.61843813E-05  1.63870862E-05
 -1.53870214E-04 -6.97672432E-05 -2.39087025E-05  6.37082589E-05  9.10118348E-06
  3.00317890E-05  8.75925950E-06 -8.22470086E-05 -3.72921288E-05  3.20302891E-05
  3.28208579E-05  4.68869478E-06 -4.79598807E-05 -1.39882921E-05 -2.73592316E-05
 -1.24051203E-05  6.33247972E-05  4.03740504E-05 -3.65539531E-05 -3.74561884E-05
 -5.35088046E-06  5.47332924E-05  1.59638821E-05  3.12232163E-05  1.41570990E-05
 -7.22682090E-05 -4.60761300E-05 -7.00526437E-06  1.02051771E-05  1.45788104E-06
  9.31548368E-06  2.71701677E-06 -1.11615033E-05 -5.06080182E-06 -7.38115083E-06
 -4.70601110E-06  1.48507138E-05  1.27513223E-05 -5.10218307E-04  1.45866545E-02
  7.19041045E-04  1.43981324E-02  2.13529707E-02  1.06881540E-02 -3.73487232E-03
 -5.33553206E-04  5.33553206E-04 -5.70127549E-03 -8.14467957E-04  8.14467957E-04
 -9.45571772E-03 -1.35081685E-03  1.35081685E-03 -8.88416781E-03 -1.26916677E-03
  1.26916677E-03 -1.22448804E-03 -1.74926827E-04  1.74926827E-04 -7.12921082E-05
 -3.60154537E-05 -5.14506316E-06  1.23481554E-04  3.60154537E-05 -1.09516680E-04
 -5.53258009E-05 -7.90368128E-06  1.89688455E-04  5.53258009E-05 -1.12537477E-03
 -5.68518495E-04 -8.12169267E-05  1.94920628E-03  5.68518495E-04 -1.05281036E-03
 -5.31860246E-04 -7.59800384E-05  1.82352104E-03  5.31860246E-04  1.14652686E-06
 -3.05508323E-06 -4.36440214E-07 -1.44015394E-06 -4.20043063E-07  3.94409549E-06
  1.78831965E-06 -7.19873468E-05  1.91820905E-04  2.74029844E-05  9.04234972E-05
  2.63735207E-05 -2.47639723E-04 -1.12283852E-04 -2.19199899E-04  5.84090548E-04
  8.34415033E-05  2.75337592E-04  8.03067994E-05 -7.54057655E-04 -3.41901888E-04
 -3.15048326E-06 -3.22824473E-06 -4.61177155E-07  4.71730876E-06  1.37588104E-06
  2.69104052E-06  1.22016006E-06 -6.22859457E-06 -3.97117293E-06  9.84156311E-05
  1.00844743E-04  1.44063910E-05 -1.47360572E-04 -4.29801629E-05 -8.40634571E-05
 -3.81157278E-05  1.94570511E-04  1.24052540E-04  9.63784169E-06 -1.40402770E-05
 -2.00575395E-06 -1.28162418E-05 -3.73807082E-06  1.53559898E-05  6.96265325E-06
  1.01549895E-05  6.47452858E-06 -2.04316036E-05 -1.75432685E-05 -5.25567698E-02
  5.03973938E-02 -1.96929423E-02 -2.17021667E-03  7.65921546E-03 -1.07694068E-03
  1.70061162E-02  2.42944529E-03 -2.42944529E-03  6.49356063E-03  9.27652006E-04
 -9.27652006E-04 -3.57343851E-04 -5.10484028E-05  5.10484028E-05  4.84696814E-03
  6.92423902E-04 -6.92423902E-04 -1.22929651E-03 -1.75613752E-04  1.75613752E-04
 -2.77351321E-03 -1.40112756E-03 -2.00161136E-04  4.80386580E-03  1.40112756E-03
  9.38518650E-04  4.74122054E-04  6.77317251E-05 -1.62556199E-03 -4.74122054E-04
  2.60523300E-04  1.31611063E-04  1.88010609E-05 -4.51239593E-04 -1.31611063E-04
 -8.85037407E-04 -4.47104488E-04 -6.38721645E-05  1.53292976E-03  4.47104488E-04
  4.69663512E-04 -1.25148768E-03 -1.78783968E-04 -5.89945611E-04 -1.72067449E-04
  1.61566364E-03  7.32568038E-04 -5.63438258E-04  1.50136475E-03  2.14480667E-04
  7.07736367E-04  2.06422912E-04 -1.93825356E-03 -8.78835297E-04  2.09667799E-04
 -5.58690632E-04 -7.98128950E-05 -2.63364193E-04 -7.68149155E-05  7.21266504E-04
  3.27033921E-04 -1.65259678E-05 -1.69338241E-05 -2.41912490E-06  2.47448135E-05
  7.21720347E-06  1.41158990E-05  6.40040288E-06 -3.26723127E-05 -2.08308660E-05
  2.08674303E-05  2.13825196E-05  3.05474227E-06 -3.12454286E-05 -9.11315926E-06
 -1.78242098E-05 -8.08208836E-06  4.12555215E-05  2.63033254E-05  1.52288402E-05
 -2.21851746E-05 -3.16931890E-06 -2.02510662E-05 -5.90654017E-06  2.42641425E-05
  1.10017727E-05  1.60460147E-05  1.02304277E-05 -3.22841692E-05 -2.77202860E-05
 -1.28532207E-03  3.36711332E-01  1.63463374E-02  3.67504682E-01  5.05683357E-01
  2.40882582E-01 -5.41631669E-03 -7.73759590E-04  7.73759590E-04 -8.71773224E-03
 -1.24539040E-03  1.24539040E-03 -1.36290029E-02 -1.94700043E-03  1.94700043E-03
 -2.45902663E-02 -3.51289549E-03  3.51289549E-03 -6.20328261E-03 -8.86183705E-04
  8.86183705E-04 -7.55073189E-05 -3.81449346E-05 -5.44922365E-06  1.30782513E-04
  3.81449346E-05 -4.60349600E-05 -2.32560377E-05 -3.32222660E-06  7.97348897E-05
  2.32560377E-05 -1.02824591E-03 -5.19450901E-04 -7.42071399E-05  1.78097416E-03
  5.19450901E-04 -2.70382654E-03 -1.36592320E-03 -1.95131908E-04  4.68316494E-03
  1.36592320E-03 -3.92919255E-06  1.04699605E-05  1.49571725E-06  4.93548877E-06
  1.43952037E-06 -1.35166609E-05 -6.12865674E-06  4.64441528E-08 -1.23858905E-07
 -1.77222267E-08 -5.83925270E-08 -1.70489872E-08  1.59901158E-07  7.24752991E-08
 -2.97024518E-04  7.91465878E-04  1.13066634E-04  3.73093438E-04  1.08818880E-04
 -1.02177805E-03 -4.63290637E-04 -1.89656552E-05 -1.94337810E-05 -2.77624973E-06
  2.83978170E-05  8.28269386E-06  1.61998510E-05  7.34526637E-06 -3.74956361E-05
 -2.39061498E-05  1.15811405E-04  1.18669893E-04  1.69528262E-05 -1.73407713E-04
 -5.05772495E-05 -9.89223578E-05 -4.48529622E-05  2.28962411E-04  1.45979856E-04
  1.14252032E-05 -1.66440889E-05 -2.37773031E-06 -1.51930440E-05 -4.43130657E-06
  1.82037998E-05  8.25389879E-06  1.20382634E-05  7.67524813E-06 -2.42207042E-05
 -2.07967111E-05  1.54207210E-02 -1.20219689E-01  3.76516274E-02  5.89458390E-03
  1.66531902E-03  4.74001788E-03 -4.36255712E-02 -6.23222235E-03  6.23222235E-03
 -3.97446654E-02 -5.67780580E-03  5.67780580E-03  9.84614989E-03  1.40659639E-03
 -1.40659639E-03  7.27398806E-03  1.03914188E-03 -1.03914188E-03  1.12287445E-03
  1.60410620E-04 -1.60410620E-04  5.26721949E-03  2.66090065E-03  3.80128532E-04
 -9.12309177E-03 -2.66090065E-03 -2.89247799E-03 -1.46122712E-03 -2.08746823E-04
  5.00991883E-03  1.46122712E-03 -2.82620281E-03 -1.42774765E-03 -2.03964391E-04
  4.89512686E-03  1.42774765E-03 -5.78263199E-03 -2.92127950E-03 -4.17325874E-04
  1.00158124E-02  2.92127950E-03 -6.77424968E-04  1.80509997E-03  2.57871290E-04
  8.50915372E-04  2.48183456E-04 -2.33037404E-03 -1.05662858E-03  1.12456429E-03
 -2.99656759E-03 -4.28081081E-04 -1.41256825E-03 -4.11999056E-04  3.86855212E-03
  1.75406399E-03  9.41334451E-04 -2.50832297E-03 -3.58331999E-04 -1.18241264E-03
 -3.44870801E-04  3.23823103E-03  1.46826713E-03 -3.10468460E-04 -3.18131584E-04
 -4.54473776E-05  4.64873422E-04  1.35588108E-04  2.65192221E-04  1.20242459E-04
 -6.13805016E-04 -3.91344457E-04  6.53398459E-04  6.69526026E-04  9.56466470E-05
 -9.78352454E-04 -2.85352827E-04 -5.58112055E-04 -2.53057242E-04  1.29178743E-03
  8.23606659E-04  1.11382632E-04 -1.62260623E-04 -2.31801002E-05 -1.48114778E-04
 -4.32001431E-05  1.77466050E-04  8.04660101E-05  1.17359209E-04  7.48248428E-05
 -2.36123884E-04 -2.02744090E-04  4.29938379E-04  2.24162296E-02  7.02294626E-04
  2.97454330E-02  4.10823279E-02 -1.43419702E-02  1.43933274E-01  2.05619199E-02
 -2.05619199E-02  2.41748269E-01  3.45355065E-02 -3.45355065E-02  3.35741371E-01
  4.79631081E-02 -4.79631081E-02  3.36054698E-01  4.80078672E-02 -4.80078672E-02
  1.63256928E-01  2.33224413E-02 -2.33224413E-02  1.48525552E-04  7.50323872E-05
  1.07189209E-05 -2.57253803E-04 -7.50323872E-05  4.81846258E-04  2.43419876E-04
  3.47742506E-05 -8.34582199E-04 -2.43419876E-04  2.21702115E-03  1.11999870E-03
  1.59999867E-04 -3.83999327E-03 -1.11999870E-03  7.06028574E-03  3.56672762E-03
  5.09532543E-04 -1.22287736E-02 -3.56672761E-03  1.07545970E-05 -2.86572770E-05
 -4.09388377E-06 -1.35088739E-05 -3.94014040E-06  3.69963855E-05  1.67747175E-05
 -2.13234138E-05  5.68192882E-05  8.11707530E-06  2.67844236E-05  7.81205608E-06
 -7.33533856E-05 -3.32596815E-05  7.21345384E-04 -1.92213040E-03 -2.74590157E-04
 -9.06083859E-04 -2.64274634E-04  2.48145967E-03  1.12513438E-03  3.72610450E-05
  3.81807499E-05  5.45438858E-06 -5.57920340E-05 -1.62726798E-05 -3.18271935E-05
 -1.44309557E-05  7.36661442E-05  4.69674334E-05 -2.80405411E-04 -2.87326571E-04
 -4.10466551E-05  4.19859133E-04  1.22458945E-04  2.39513355E-04  1.08599242E-04
 -5.54369498E-04 -3.53450155E-04 -2.73012660E-05  3.97721025E-05  5.68173112E-06
  3.63047711E-05  1.05888956E-05 -4.34991446E-05 -1.97232193E-05 -2.87662006E-05
 -1.83405052E-05  5.78769103E-05  4.96950941E-05  1.96927565E-14  7.95564824E-15
  1.00291069E-14 -4.76705403E-14  1.03890435E-14 -3.93127988E-15 -2.26291104E-10
  1.22070918E-02  1.22070903E-02 -4.07117759E-10  2.19615047E-02  2.19615019E-02
 -5.37563022E-10  2.89961035E-02  2.89960997E-02 -1.73550758E-10  9.36313208E-03
  9.36313087E-03  1.59565010E-11 -8.60984996E-04 -8.60984885E-04 -1.30739220E-03
  5.28376269E-03 -9.79472246E-11 -7.54823436E-04  5.28376335E-03 -9.47443979E-04
  3.82904964E-03 -7.09825587E-11 -5.47007178E-04  3.82905012E-03 -3.12705696E-03
  1.26378508E-02 -2.34289818E-10 -1.80540764E-03  1.26378524E-02 -2.13048262E-03
  8.61024333E-03 -1.59610852E-10 -1.23003503E-03  8.61024440E-03 -1.80581939E-03
 -1.12186053E-03 -8.97488556E-04  2.53402479E-03 -9.01983652E-11 -8.68989607E-04
  2.97939287E-03  5.20758128E-04  3.23519666E-04  2.58815748E-04 -7.30756387E-04
  2.60051861E-11  2.50597307E-04 -8.59190620E-04 -3.42473758E-03 -2.12760915E-03
 -1.70208772E-03  4.80577973E-03 -1.71057456E-10 -1.64803930E-03  5.65042050E-03
 -1.66970764E-04  3.34163877E-04 -5.06310443E-06  1.49343185E-04  2.07648435E-04
 -3.48287574E-04 -1.91365388E-06  1.97562505E-04 -4.35719986E-04  4.65840696E-04
 -9.32301941E-04  1.41258262E-05 -4.16660569E-04 -5.79329665E-04  9.71706435E-04
  5.33900540E-06 -5.51190239E-04  1.21563885E-03 -1.26598716E-04 -1.61176854E-04
 -5.57129091E-05  1.91460080E-04 -7.61489678E-06  7.46103794E-05  1.60545545E-04
 -2.11344039E-04 -4.39644597E-06  1.66833921E-04 -2.61671008E-04  2.83904211E-16
  2.06056709E-15 -1.13094771E-15  9.70704146E-15 -2.86930897E-14  7.68103321E-14
 -1.87853492E-09  1.01339019E-01  1.01339006E-01 -3.15377327E-09  1.70132665E-01
  1.70132642E-01 -4.40813600E-09  2.37800504E-01  2.37800473E-01 -4.35008233E-09
  2.34668986E-01  2.34668956E-01 -2.08352113E-09  1.12398042E-01  1.12398027E-01
  5.28379623E-05 -2.13542122E-04  3.95858422E-12  3.05060197E-05 -2.13542149E-04
  1.70689999E-04 -6.89835389E-04  1.27873788E-11  9.85479422E-05 -6.89835475E-04
  8.35975776E-04 -3.37855594E-03  6.26303700E-11  4.82650965E-04 -3.37855636E-03
  2.31325204E-03 -9.34889469E-03  1.73294543E-10  1.33555703E-03 -9.34889585E-03
 -1.14331911E-05 -7.10282911E-06 -5.68229381E-06  1.60437074E-05 -5.70908276E-13
 -5.50182890E-06  1.88634576E-05 -2.79565982E-05 -1.73679303E-05 -1.38945437E-05
  3.92304484E-05 -1.39675473E-12 -1.34531437E-05  4.61252822E-05 -1.24626658E-03
 -7.74239873E-04 -6.19391964E-04  1.74882962E-03 -6.22414558E-11 -5.99723750E-04
  2.05619554E-03  1.73370887E-05 -3.46972864E-05  5.25711424E-07 -1.55067629E-05
 -2.15607964E-05  3.61638010E-05  1.98698193E-07 -2.05135235E-05  4.52421791E-05
 -1.64556082E-04  3.29331348E-04 -4.98987836E-06  1.47183429E-04  2.04645520E-04
 -3.43250799E-04 -1.88597731E-06  1.94705416E-04 -4.29418800E-04  2.02559990E-05
  2.57885470E-05  8.91416054E-06 -3.06338915E-05  1.21840144E-06 -1.19377766E-05
 -2.56875163E-05  3.38153614E-05  7.03441720E-07 -2.66936865E-05  4.18677579E-05
 -2.87581182E-09  2.85329979E-08 -9.48384948E-09  3.94833421E-09  6.32003834E-12
 -1.45215010E-09 -3.41865958E-03  1.19653442E-02 -1.19653459E-02 -6.15044166E-03
  2.15265811E-02 -2.15265840E-02 -8.12053478E-03  2.84218691E-02 -2.84218729E-02
 -2.62220545E-03  9.17770792E-03 -9.17770916E-03  2.41124042E-04 -8.43934576E-04
  8.43934690E-04  1.28149975E-03 -4.96773195E-03 -1.47974977E-03 -2.21962248E-03
  4.96773125E-03  9.28681754E-04 -3.60002707E-03 -1.07234844E-03 -1.60852384E-03
  3.60002656E-03  3.06513037E-03 -1.18819586E-02 -3.53930672E-03 -5.30896106E-03
  1.18819569E-02  2.08829373E-03 -8.09525127E-03 -2.41135146E-03 -3.61703052E-03
  8.09525013E-03  1.77005757E-03  1.30610697E-03 -5.65530951E-04 -2.08642721E-03
 -1.36256452E-03 -1.68617669E-03  2.67702350E-03 -5.10445728E-04 -3.76652011E-04
  1.63086720E-04  6.01679800E-04  3.92933611E-04  4.86255611E-04 -7.71994791E-04
  3.35691526E-03  2.47703456E-03 -1.07252969E-03 -3.95691033E-03 -2.58410474E-03
 -3.19783757E-03  5.07697660E-03  1.63664205E-04 -3.12758958E-04 -9.85474388E-05
 -2.34618184E-04  9.89749444E-05  2.24020471E-04  2.60732017E-04  3.15676146E-04
 -3.71762356E-04 -4.56615609E-04  8.72583253E-04  2.74942862E-04  6.54573980E-04
 -2.76135619E-04 -6.25006945E-04 -7.27430440E-04 -8.80721961E-04  1.03720006E-03
  1.24091555E-04  1.67139335E-04 -9.47102407E-06 -1.53546877E-04 -1.09524017E-04
 -1.68466675E-04  5.28906584E-05  8.89581433E-05  1.89701163E-04  2.36812503E-04
 -2.09765988E-04 -1.56134031E-10 -5.47946670E-09 -2.32437483E-10 -7.11199196E-09
 -1.05381593E-08  2.52094560E-09 -2.83806302E-02  9.93320871E-02 -9.93321005E-02
 -4.76467237E-02  1.66763334E-01 -1.66763356E-01 -6.65975282E-02  2.33091071E-01
 -2.33091102E-01 -6.57205300E-02  2.30021572E-01 -2.30021603E-01 -3.14777867E-02
  1.10172104E-01 -1.10172119E-01 -5.17916067E-05  2.00769769E-04  5.98037285E-05
  8.97056861E-05 -2.00769741E-04 -1.67309794E-04  6.48575030E-04  1.93192471E-04
  2.89789037E-04 -6.48574939E-04 -8.19420725E-04  3.17647811E-03  9.46184735E-04
  1.41927820E-03 -3.17647766E-03 -2.26744203E-03  8.78971945E-03  2.61821406E-03
  3.92732445E-03 -8.78971821E-03  1.12068155E-05  8.26936696E-06 -3.58051833E-06
 -1.32098001E-05 -8.62676451E-06 -1.06757059E-05  1.69490805E-05  2.74030622E-05
  2.02203498E-05 -8.75517096E-06 -3.23008356E-05 -2.10943583E-05 -2.61043570E-05
  4.14441581E-05  1.22158563E-03  9.01396026E-04 -3.90294842E-04 -1.43992453E-03
 -9.40358838E-04 -1.16369716E-03  1.84751805E-03 -1.69937582E-05  3.24747309E-05
  1.02324908E-05  2.43611332E-05 -1.02768800E-05 -2.32607444E-05 -2.70726260E-05
 -3.27776297E-05  3.86012382E-05  1.61297313E-04 -3.08235915E-04 -9.71222783E-05
 -2.31225160E-04  9.75436232E-05  2.20780774E-04  2.56961396E-04  3.11110872E-04
 -3.66386032E-04 -1.98548333E-05 -2.67425547E-05  1.51537355E-06  2.45677359E-05
  1.75240077E-05  2.69549319E-05 -8.46258701E-06 -1.42334361E-05 -3.03524719E-05
 -3.78903706E-05  3.35628751E-05  1.49270194E-02  9.38103335E-02 -3.92379730E-02
  3.92593031E-01 -6.00652515E-01  1.17130456E+00 -1.62077380E-02 -2.31539123E-03
  2.31539123E-03  8.71870077E-02  1.24552868E-02 -1.24552868E-02 -9.35652586E-02
 -1.33664660E-02  1.33664660E-02 -8.85997268E-02 -1.26571046E-02  1.26571046E-02
 -4.02365510E-01 -5.74807905E-02  5.74807905E-02  8.67740934E-05  4.38366986E-05
  6.26231915E-06 -1.50297138E-04 -4.38366987E-05 -3.05878873E-02 -1.54524346E-02
 -2.20749052E-03  5.29797750E-02  1.54524346E-02  7.84701347E-03  3.96416587E-03
  5.66309050E-04 -1.35914260E-02 -3.96416587E-03 -2.39108488E-02 -1.20793195E-02
 -1.72561626E-03  4.14148050E-02  1.20793195E-02  4.71646314E-03 -1.25677123E-02