carbon monoxide
SP        RPBEPBE                                                     STO-3G
Number of atoms                            I                2
Info1-9                                    I   N=           9
          10           9           0           0           0         110
           1          18         902
Charge                                     I                0
Multiplicity                               I                1
Number of electrons                        I               14
Number of alpha electrons                  I                7
Number of beta electrons                   I                7
Number of basis functions                  I               10
Number of independent functions            I               10
Number of point charges in /Mol/           I                0
Number of translation vectors              I                0
Atomic numbers                             I   N=           2
           6           8
Nuclear charges                            R   N=           2
  6.00000000E+00  8.00000000E+00
Current cartesian coordinates              R   N=           6
  0.00000000E+00  0.00000000E+00 -1.21806347E+00  0.00000000E+00  0.00000000E+00
  9.13547605E-01
Force Field                                I                0
Int Atom Types                             I   N=           2
           0           0
MM charges                                 R   N=           2
  0.00000000E+00  0.00000000E+00
Integer atomic weights                     I   N=           2
          12          16
Real atomic weights                        R   N=           2
  1.20000000E+01  1.59949146E+01
Atom fragment info                         I   N=           2
           0           0
Atom residue num                           I   N=           2
           0           0
Nuclear spins                              I   N=           2
           0           0
Nuclear ZEff                               R   N=           2
 -3.60000000E+00 -5.60000000E+00
Nuclear QMom                               R   N=           2
  0.00000000E+00  0.00000000E+00
Nuclear GFac                               R   N=           2
  0.00000000E+00  0.00000000E+00
MicOpt                                     I   N=           2
          -1          -1
Number of contracted shells                I                4
Number of primitive shells                 I               12
Pure/Cartesian d shells                    I                0
Pure/Cartesian f shells                    I                0
Highest angular momentum                   I                1
Largest degree of contraction              I                3
Shell types                                I   N=           4
           0          -1           0          -1
Number of primitives per shell             I   N=           4
           3           3           3           3
Shell to atom map                          I   N=           4
           1           1           2           2
Primitive exponents                        R   N=          12
  7.16168373E+01  1.30450963E+01  3.53051216E+00  2.94124936E+00  6.83483096E-01
  2.22289916E-01  1.30709321E+02  2.38088661E+01  6.44360831E+00  5.03315132E+00
  1.16959612E+00  3.80388960E-01
Contraction coefficients                   R   N=          12
  1.54328967E-01  5.35328142E-01  4.44634542E-01 -9.99672292E-02  3.99512826E-01
  7.00115469E-01  1.54328967E-01  5.35328142E-01  4.44634542E-01 -9.99672292E-02
  3.99512826E-01  7.00115469E-01
P(S=P) Contraction coefficients            R   N=          12
  0.00000000E+00  0.00000000E+00  0.00000000E+00  1.55916275E-01  6.07683719E-01
  3.91957393E-01  0.00000000E+00  0.00000000E+00  0.00000000E+00  1.55916275E-01
  6.07683719E-01  3.91957393E-01
Coordinates of each shell                  R   N=          12
  0.00000000E+00  0.00000000E+00 -1.21806347E+00  0.00000000E+00  0.00000000E+00
 -1.21806347E+00  0.00000000E+00  0.00000000E+00  9.13547605E-01  0.00000000E+00
  0.00000000E+00  9.13547605E-01
Constraint Structure                       R   N=           6
  0.00000000E+00  0.00000000E+00 -1.21806347E+00  0.00000000E+00  0.00000000E+00
  9.13547605E-01
Num ILSW                                   I              100
ILSW                                       I   N=         100
           0           0           0           0           2           0
           0           0           0           0        1009          -1
           0           0           0           0           0           0
           0           0           0           0           0           0
           1           0           0           0           0           0
           0           0      100000           0          -1           0
           0           0           0           0           0           0
           0           0           0           1           0           0
           0           0           1           0           0           0
           0           0           4          40           0           0
           0           0           0           0           0           0
           0           0           0           0           0           0
           0           0           0           0           0           0
           0           0           0           0           0           0
           0           0           0           0           0           0
           0           0           0           0           0           0
           0           0           0           0
Num RLSW                                   I               40
RLSW                                       R   N=          40
  1.00000000E+00  1.00000000E+00  1.00000000E+00  1.00000000E+00  0.00000000E+00
  0.00000000E+00  0.00000000E+00  1.00000000E+00  0.00000000E+00  0.00000000E+00
  0.00000000E+00  0.00000000E+00  1.00000000E+00  0.00000000E+00  0.00000000E+00
  0.00000000E+00  0.00000000E+00  1.00000000E+00  0.00000000E+00  0.00000000E+00
  0.00000000E+00  0.00000000E+00  1.00000000E+00  0.00000000E+00  0.00000000E+00
  0.00000000E+00  0.00000000E+00  1.00000000E+00  0.00000000E+00  0.00000000E+00
  0.00000000E+00  0.00000000E+00  0.00000000E+00  0.00000000E+00  0.00000000E+00
  0.00000000E+00  0.00000000E+00  0.00000000E+00  1.00000000E+00  1.00000000E+00
MxBond                                     I                1
NBond                                      I   N=           2
           1           1
IBond                                      I   N=           2
           2           1
RBond                                      R   N=           2
  2.00000000E+00  2.00000000E+00
Virial Ratio                               R      2.011831666187335E+00
SCF Energy                                 R     -1.116465967841901E+02
Total Energy                               R     -1.116465967841901E+02
RMS Density                                R      1.238793417659960E-09
External E-field                           R   N=          35
  0.00000000E+00  0.00000000E+00  0.00000000E+00  0.00000000E+00  0.00000000E+00
  0.00000000E+00  0.00000000E+00  0.00000000E+00  0.00000000E+00  0.00000000E+00
  0.00000000E+00  0.00000000E+00  0.00000000E+00  0.00000000E+00  0.00000000E+00
  0.00000000E+00  0.00000000E+00  0.00000000E+00  0.00000000E+00  0.00000000E+00
  0.00000000E+00  0.00000000E+00  0.00000000E+00  0.00000000E+00  0.00000000E+00
  0.00000000E+00  0.00000000E+00  0.00000000E+00  0.00000000E+00  0.00000000E+00
  0.00000000E+00  0.00000000E+00  0.00000000E+00  0.00000000E+00  0.00000000E+00
IOpCl                                      I                0
IROHF                                      I                0
Alpha Orbital Energies                     R   N=          10
 -1.86831122E+01 -9.73586915E+00 -1.03946082E+00 -4.09331776E-01 -3.48686522E-01
 -3.48686522E-01 -2.06049056E-01  5.23730418E-02  5.23730418E-02  6.61093726E-01
Alpha MO coefficients                      R   N=         100
  5.40242250E-04 -1.09387359E-02  0.00000000E+00  0.00000000E+00 -9.48090253E-03
  9.93229632E-01  3.24679225E-02  0.00000000E+00  0.00000000E+00 -7.93364287E-03
  9.91594187E-01  3.50752307E-02  0.00000000E+00  0.00000000E+00  8.94823308E-03
  2.98079524E-04 -1.07922675E-02  0.00000000E+00  0.00000000E+00  2.93764600E-03
 -1.30193357E-01  2.35885012E-01  0.00000000E+00  0.00000000E+00  1.80037286E-01
 -2.19212460E-01  7.42538622E-01  0.00000000E+00  0.00000000E+00 -2.60929700E-01
  1.65926707E-01 -5.44001101E-01  0.00000000E+00  0.00000000E+00 -8.81199162E-02
 -1.45574069E-01  6.99069066E-01  0.00000000E+00  0.00000000E+00  6.00505830E-01
  0.00000000E+00  0.00000000E+00  0.00000000E+00  4.72756642E-01  0.00000000E+00
  0.00000000E+00  0.00000000E+00  0.00000000E+00  7.71025609E-01  0.00000000E+00
  0.00000000E+00  0.00000000E+00  4.72756642E-01  0.00000000E+00  0.00000000E+00
  0.00000000E+00  0.00000000E+00  7.71025609E-01  0.00000000E+00  0.00000000E+00
 -1.79298685E-01  7.97546664E-01  0.00000000E+00  0.00000000E+00 -5.32292106E-01
 -9.72474507E-04  2.57868726E-02  0.00000000E+00  0.00000000E+00  4.51782063E-01
  0.00000000E+00  0.00000000E+00  9.18142742E-01  0.00000000E+00  0.00000000E+00
  0.00000000E+00  0.00000000E+00 -6.87025798E-01  0.00000000E+00  0.00000000E+00
  0.00000000E+00  0.00000000E+00  0.00000000E+00  9.18142742E-01  0.00000000E+00
  0.00000000E+00  0.00000000E+00  0.00000000E+00 -6.87025798E-01  0.00000000E+00
 -1.17195067E-01  9.42058317E-01  0.00000000E+00  0.00000000E+00  1.24415280E+00
  1.26257288E-01 -1.06939861E+00  0.00000000E+00  0.00000000E+00  9.67907739E-01
Total SCF Density                          R   N=          55
  2.11977865E+00 -4.58399111E-01  1.97801909E+00  0.00000000E+00  0.00000000E+00
  4.46997685E-01  0.00000000E+00  0.00000000E+00  0.00000000E+00  4.46997685E-01
  1.32492125E-01 -6.67409588E-01  0.00000000E+00  0.00000000E+00  6.47366777E-01
  1.07838044E-02  3.17074098E-02  0.00000000E+00  0.00000000E+00 -7.10696943E-02
  2.11150410E+00  8.02614035E-03 -3.70616150E-01  0.00000000E+00  0.00000000E+00
  1.15904370E-01 -4.64640475E-01  2.08379353E+00  0.00000000E+00  0.00000000E+00
  7.29014955E-01  0.00000000E+00  0.00000000E+00  0.00000000E+00  0.00000000E+00
  1.18896098E+00  0.00000000E+00  0.00000000E+00  0.00000000E+00  7.29014955E-01
  0.00000000E+00  0.00000000E+00  0.00000000E+00  0.00000000E+00  1.18896098E+00
  1.11032010E-01 -5.54362771E-02  0.00000000E+00  0.00000000E+00 -6.80544239E-01
 -7.70748715E-02  4.74810847E-01  0.00000000E+00  0.00000000E+00  1.26574033E+00
QEq coupling tensors                       R   N=          12
 -1.37828171E-01  0.00000000E+00 -1.37828171E-01  0.00000000E+00  0.00000000E+00
  2.75656342E-01 -5.69541490E-02  0.00000000E+00 -5.69541490E-02  0.00000000E+00
  0.00000000E+00  1.13908298E-01
Mulliken Charges                           R   N=           2
  1.03766896E-01 -1.03766896E-01
ONIOM Charges                              I   N=          16
           0           0           0           0           0           0
           0           0           0           0           0           0
           0           0           0           0
ONIOM Multiplicities                       I   N=          16
           1           0           0           0           0           0
           0           0           0           0           0           0
           0           0           0           0
Atom Layers                                I   N=           2
           1           1
Atom Modifiers                             I   N=           2
           0           0
Force Field                                I                0
Int Atom Modified Types                    I   N=           2
           0           0
Link Atoms                                 I   N=           2
           0           0
Atom Modified MM Charges                   R   N=           2
  0.00000000E+00  0.00000000E+00
Link Distances                             R   N=           8
  0.00000000E+00  0.00000000E+00  0.00000000E+00  0.00000000E+00  0.00000000E+00
  0.00000000E+00  0.00000000E+00  0.00000000E+00
Cartesian Gradient                         R   N=           6
  0.00000000E+00  0.00000000E+00  0.00000000E+00  0.00000000E+00  0.00000000E+00
  0.00000000E+00
Dipole Moment                              R   N=           3
  0.00000000E+00  0.00000000E+00  2.35323664E-01
Quadrupole Moment                          R   N=           6
  6.77125690E-01  6.77125690E-01 -1.35425138E+00  0.00000000E+00  0.00000000E+00
  0.00000000E+00
