 &FCI NORB=  2,NELEC=  2,MS2= 0,
  ORBSYM=1,1,
  ISYM=1,
 /
  0.6483921443128597E+00   1   1   1   1
 -0.6938893903907228E-17   2   1   1   1
  0.1555162649723980E+00   2   1   2   1
  0.6365045298912995E+00   2   2   1   1
  0.1665334536937735E-15   2   2   2   1
  0.6573229964969802E+00   2   2   2   2
 -0.1252797061857550E+01   1   1   0   0
  0.0000000000000000E+00   2   1   0   0
 -0.4756022997100569E+00   2   2   0   0
  0.7142857142857143E+00   0   0   0   0
