 Entering Gaussian System, Link 0=/opt/sharcnet/gaussian/g09_C.01/g09
 Initial command:
 /opt/sharcnet/gaussian/g09_C.01/l1.exe /scratch/fzadeh/1460974/Gau-21044.inp -scrdir=/scratch/fzadeh/1460974/
 Entering Link 1 = /opt/sharcnet/gaussian/g09_C.01/l1.exe PID=     21045.
  
 Copyright (c) 1988,1990,1992,1993,1995,1998,2003,2009,2011,
            Gaussian, Inc.  All Rights Reserved.
  
 This is part of the Gaussian(R) 09 program.  It is based on
 the Gaussian(R) 03 system (copyright 2003, Gaussian, Inc.),
 the Gaussian(R) 98 system (copyright 1998, Gaussian, Inc.),
 the Gaussian(R) 94 system (copyright 1995, Gaussian, Inc.),
 the Gaussian 92(TM) system (copyright 1992, Gaussian, Inc.),
 the Gaussian 90(TM) system (copyright 1990, Gaussian, Inc.),
 the Gaussian 88(TM) system (copyright 1988, Gaussian, Inc.),
 the Gaussian 86(TM) system (copyright 1986, Carnegie Mellon
 University), and the Gaussian 82(TM) system (copyright 1983,
 Carnegie Mellon University). Gaussian is a federally registered
 trademark of Gaussian, Inc.
  
 This software contains proprietary and confidential information,
 including trade secrets, belonging to Gaussian, Inc.
  
 This software is provided under written license and may be
 used, copied, transmitted, or stored only in accord with that
 written license.
  
 The following legend is applicable only to US Government
 contracts under FAR:
  
                    RESTRICTED RIGHTS LEGEND
  
 Use, reproduction and disclosure by the US Government is
 subject to restrictions as set forth in subparagraphs (a)
 and (c) of the Commercial Computer Software - Restricted
 Rights clause in FAR 52.227-19.
  
 Gaussian, Inc.
 340 Quinnipiac St., Bldg. 40, Wallingford CT 06492
  
  
 ---------------------------------------------------------------
 Warning -- This program may not be used in any manner that
 competes with the business of Gaussian, Inc. or will provide
 assistance to any competitor of Gaussian, Inc.  The licensee
 of this program is prohibited from giving any competitor of
 Gaussian, Inc. access to this program.  By using this program,
 the user acknowledges that Gaussian, Inc. is engaged in the
 business of creating and licensing software in the field of
 computational chemistry and represents and warrants to the
 licensee that it is not a competitor of Gaussian, Inc. and that
 it will not use this program in any manner prohibited above.
 ---------------------------------------------------------------
  

 Cite this work as:
 Gaussian 09, Revision C.01,
 M. J. Frisch, G. W. Trucks, H. B. Schlegel, G. E. Scuseria, 
 M. A. Robb, J. R. Cheeseman, G. Scalmani, V. Barone, B. Mennucci, 
 G. A. Petersson, H. Nakatsuji, M. Caricato, X. Li, H. P. Hratchian, 
 A. F. Izmaylov, J. Bloino, G. Zheng, J. L. Sonnenberg, M. Hada, 
 M. Ehara, K. Toyota, R. Fukuda, J. Hasegawa, M. Ishida, T. Nakajima, 
 Y. Honda, O. Kitao, H. Nakai, T. Vreven, J. A. Montgomery, Jr., 
 J. E. Peralta, F. Ogliaro, M. Bearpark, J. J. Heyd, E. Brothers, 
 K. N. Kudin, V. N. Staroverov, T. Keith, R. Kobayashi, J. Normand, 
 K. Raghavachari, A. Rendell, J. C. Burant, S. S. Iyengar, J. Tomasi, 
 M. Cossi, N. Rega, J. M. Millam, M. Klene, J. E. Knox, J. B. Cross, 
 V. Bakken, C. Adamo, J. Jaramillo, R. Gomperts, R. E. Stratmann, 
 O. Yazyev, A. J. Austin, R. Cammi, C. Pomelli, J. W. Ochterski, 
 R. L. Martin, K. Morokuma, V. G. Zakrzewski, G. A. Voth, 
 P. Salvador, J. J. Dannenberg, S. Dapprich, A. D. Daniels, 
 O. Farkas, J. B. Foresman, J. V. Ortiz, J. Cioslowski, 
 and D. J. Fox, Gaussian, Inc., Wallingford CT, 2010.
 
 ******************************************
 Gaussian 09:  EM64L-G09RevC.01 23-Sep-2011
                 8-May-2013 
 ******************************************
 %chk=gaussian.chk
 ----------------------------------------------------------------------
 # opt=tight hf/sto-3g scf=tight integral=grid=ultrafine nosymmetry out
 put=wfn
 ----------------------------------------------------------------------
 1/7=10,18=20,19=15,38=1/1,3;
 2/9=110,12=2,15=1,17=6,18=5,40=1/2;
 3/6=3,11=9,16=1,25=1,30=1,71=1,75=-5/1,2,3;
 4//1;
 5/5=2,32=2,38=5/2;
 6/7=2,8=2,9=2,10=2,28=1/1;
 7/30=1/1,2,3,16;
 1/7=10,18=20,19=15/3(2);
 2/9=110,15=1/2;
 99/6=100/99;
 2/9=110,15=1/2;
 3/6=3,11=9,16=1,25=1,30=1,71=1,75=-5/1,2,3;
 4/5=5,16=3/1;
 5/5=2,32=2,38=5/2;
 7/30=1/1,2,3,16;
 1/7=10,18=20,19=15/3(-5);
 2/9=110,15=1/2;
 6/7=2,8=2,9=2,10=2,19=2,28=1/1;
 99/6=100,9=1/99;
 ----------------
 H2O Optimization
 ----------------
 Charge =  0 Multiplicity = 1
 Symbolic Z-Matrix:
 O                    -2.32198   1.84211   0. 
 H                    -1.36198   1.84211   0. 
 H                    -2.64244   2.74704   0. 
 

 GradGradGradGradGradGradGradGradGradGradGradGradGradGradGradGradGradGrad
 Berny optimization.
 Initialization pass.
                           ----------------------------
                           !    Initial Parameters    !
                           ! (Angstroms and Degrees)  !
 --------------------------                            --------------------------
 ! Name  Definition              Value          Derivative Info.                !
 --------------------------------------------------------------------------------
 ! R1    R(1,2)                  0.96           estimate D2E/DX2                !
 ! R2    R(1,3)                  0.96           estimate D2E/DX2                !
 ! A1    A(2,1,3)              109.5            estimate D2E/DX2                !
 --------------------------------------------------------------------------------
 Trust Radius=3.00D-01 FncErr=1.00D-07 GrdErr=1.00D-07
 Number of steps in this run=     20 maximum allowed number of steps=    100.
 GradGradGradGradGradGradGradGradGradGradGradGradGradGradGradGradGradGrad

                          Input orientation:                          
 ---------------------------------------------------------------------
 Center     Atomic      Atomic             Coordinates (Angstroms)
 Number     Number       Type             X           Y           Z
 ---------------------------------------------------------------------
      1          8           0       -2.321981    1.842105    0.000000
      2          1           0       -1.361981    1.842105    0.000000
      3          1           0       -2.642436    2.747041    0.000000
 ---------------------------------------------------------------------
                    Distance matrix (angstroms):
                    1          2          3
     1  O    0.000000
     2  H    0.960000   0.000000
     3  H    0.960000   1.567952   0.000000
 Symmetry turned off by external request.
 Stoichiometry    H2O
 Framework group  C2V[C2(O),SGV(H2)]
 Deg. of freedom     2
 Full point group                 C2V     NOp   4
 Rotational constants (GHZ):    919.6759553    407.9403301    282.5913759
 Standard basis: STO-3G (5D, 7F)
 Integral buffers will be    131072 words long.
 Raffenetti 1 integral format.
 Two-electron integral symmetry is turned off.
     7 basis functions,    21 primitive gaussians,     7 cartesian basis functions
     5 alpha electrons        5 beta electrons
       nuclear repulsion energy         9.1571160002 Hartrees.
 NAtoms=    3 NActive=    3 NUniq=    3 SFac= 1.00D+00 NAtFMM=   60 NAOKFM=F Big=F
 One-electron integrals computed using PRISM.
 NBasis=     7 RedAO= T  NBF=     7
 NBsUse=     7 1.00D-06 NBFU=     7
 Harris functional with IExCor=  205 diagonalized for initial guess.
 ExpMin= 1.69D-01 ExpMax= 1.31D+02 ExpMxC= 1.31D+02 IAcc=3 IRadAn=         5 AccDes= 0.00D+00
 HarFok:  IExCor=  205 AccDes= 0.00D+00 IRadAn=         5 IDoV= 1
 ScaDFX=  1.000000  1.000000  1.000000  1.000000
 FoFCou: FMM=F IPFlag=           0 FMFlag=      100000 FMFlg1=           0
         NFxFlg=           0 DoJE=T BraDBF=F KetDBF=T FulRan=T
         Omega=  0.000000  0.000000  1.000000  0.000000  0.000000 ICntrl=     500 IOpCl=  0
         NMat0=    1 NMatS0=    1 NMatT0=    0 NMatD0=    1 NMtDS0=    0 NMtDT0=    0
         I1Cent=           4 NGrid=           0.
 Symmetry not used in FoFCou.
 Requested convergence on RMS density matrix=1.00D-08 within 128 cycles.
 Requested convergence on MAX density matrix=1.00D-06.
 Requested convergence on             energy=1.00D-06.
 No special actions if energy rises.
 Keep R1 ints in memory in canonical form, NReq=820147.
 SCF Done:  E(RHF) =  -74.9607025105     A.U. after    7 cycles
             Convg  =    0.2380D-09             -V/T =  2.0050

 **********************************************************************

            Population analysis using the SCF density.

 **********************************************************************

 Alpha  occ. eigenvalues --  -20.23449  -1.26075  -0.62397  -0.44044  -0.38694
 Alpha virt. eigenvalues --    0.59290   0.75419
          Condensed to atoms (all electrons):
              1          2          3
     1  O    7.839248   0.266646   0.266646
     2  H    0.266646   0.591575  -0.044492
     3  H    0.266646  -0.044492   0.591575
 Mulliken atomic charges:
              1
     1  O   -0.372541
     2  H    0.186270
     3  H    0.186270
 Sum of Mulliken atomic charges =   0.00000
 Mulliken charges with hydrogens summed into heavy atoms:
              1
     1  O    0.000000
 Sum of Mulliken charges with hydrogens summed into heavy atoms =   0.00000
 Electronic spatial extent (au):  <R**2>=            332.6161
 Charge=              0.0000 electrons
 Dipole moment (field-independent basis, Debye):
    X=              0.9747    Y=              1.3792    Z=              0.0000  Tot=              1.6888
 Quadrupole moment (field-independent basis, Debye-Ang):
   XX=             -9.0188   YY=              0.2913   ZZ=             -6.0921
   XY=             -1.8268   XZ=              0.0000   YZ=              0.0000
 Traceless Quadrupole moment (field-independent basis, Debye-Ang):
   XX=             -4.0790   YY=              5.2312   ZZ=             -1.1522
   XY=             -1.8268   XZ=              0.0000   YZ=              0.0000
 Octapole moment (field-independent basis, Debye-Ang**2):
  XXX=             46.8992  YYY=            -13.1879  ZZZ=              0.0000  XYY=              0.4049
  XXY=             -7.6566  XXZ=              0.0000  XZZ=             13.7595  YZZ=            -11.7687
  YYZ=              0.0000  XYZ=              0.0000
 Hexadecapole moment (field-independent basis, Debye-Ang**3):
 XXXX=           -198.2873 YYYY=            -73.7459 ZZZZ=             -3.2294 XXXY=             65.8314
 XXXZ=              0.0000 YYYX=             28.9026 YYYZ=              0.0000 ZZZX=              0.0000
 ZZZY=              0.0000 XXYY=            -22.3106 XXZZ=            -32.7370 YYZZ=            -24.2408
 XXYZ=              0.0000 YYXZ=              0.0000 ZZXY=             26.7984
 N-N= 9.157116000181D+00 E-N=-1.969265220805D+02  KE= 7.458408243275D+01
 Calling FoFJK, ICntrl=      2127 FMM=F ISym2X=0 I1Cent= 0 IOpClX= 0 NMat=1 NMatS=1 NMatT=0.
 -------------------------------------------------------------------
 Center     Atomic                   Forces (Hartrees/Bohr)
 Number     Number              X              Y              Z
 -------------------------------------------------------------------
      1        8          -0.042122473   -0.059601927    0.000000000
      2        1           0.030934760    0.022823046    0.000000000
      3        1           0.011187713    0.036778882    0.000000000
 -------------------------------------------------------------------
 Cartesian Forces:  Max     0.059601927 RMS     0.030335887

 GradGradGradGradGradGradGradGradGradGradGradGradGradGradGradGradGradGrad
 Berny optimization.
 Internal  Forces:  Max     0.041404134 RMS     0.034776531
 Search for a local minimum.
 Step number   1 out of a maximum of   20
 All quantities printed in internal units (Hartrees-Bohrs-Radians)
 Mixed Optimization -- RFO/linear search
 Second derivative matrix not updated -- first step.
 The second derivative matrix:
                          R1        R2        A1
           R1           0.55473
           R2           0.00000   0.55473
           A1           0.00000   0.00000   0.16000
 ITU=  0
     Eigenvalues ---    0.16000   0.55473   0.55473
 RFO step:  Lambda=-1.32637644D-02 EMin= 1.60000000D-01
 Linear search not attempted -- first point.
 Iteration  1 RMS(Cart)=  0.09790170 RMS(Int)=  0.02717658
 Iteration  2 RMS(Cart)=  0.03079842 RMS(Int)=  0.00041359
 Iteration  3 RMS(Cart)=  0.00029650 RMS(Int)=  0.00000003
 Iteration  4 RMS(Cart)=  0.00000003 RMS(Int)=  0.00000000
 Variable       Old X    -DE/DX   Delta X   Delta X   Delta X     New X
                                 (Linear)    (Quad)   (Total)
    R1        1.81414   0.03093   0.00000   0.05446   0.05446   1.86860
    R2        1.81414   0.03093   0.00000   0.05446   0.05446   1.86860
    A1        1.91114  -0.04140   0.00000  -0.23897  -0.23897   1.67217
         Item               Value     Threshold  Converged?
 Maximum Force            0.041404     0.000015     NO 
 RMS     Force            0.034777     0.000010     NO 
 Maximum Displacement     0.117104     0.000060     NO 
 RMS     Displacement     0.124129     0.000040     NO 
 Predicted change in Energy=-7.049937D-03
 GradGradGradGradGradGradGradGradGradGradGradGradGradGradGradGradGradGrad

                          Input orientation:                          
 ---------------------------------------------------------------------
 Center     Atomic      Atomic             Coordinates (Angstroms)
 Number     Number       Type             X           Y           Z
 ---------------------------------------------------------------------
      1          8           0       -2.363851    1.782861    0.000000
      2          1           0       -1.382081    1.900727    0.000000
      3          1           0       -2.580467    2.747663    0.000000
 ---------------------------------------------------------------------
                    Distance matrix (angstroms):
                    1          2          3
     1  O    0.000000
     2  H    0.988820   0.000000
     3  H    0.988820   1.467457   0.000000
 Symmetry turned off by external request.
 Stoichiometry    H2O
 Framework group  C2V[C2(O),SGV(H2)]
 Deg. of freedom     2
 Full point group                 C2V     NOp   4
 Rotational constants (GHZ):    642.5092199    465.7265988    270.0089896
 Standard basis: STO-3G (5D, 7F)
 Integral buffers will be    131072 words long.
 Raffenetti 1 integral format.
 Two-electron integral symmetry is turned off.
     7 basis functions,    21 primitive gaussians,     7 cartesian basis functions
     5 alpha electrons        5 beta electrons
       nuclear repulsion energy         8.9231688655 Hartrees.
 NAtoms=    3 NActive=    3 NUniq=    3 SFac= 1.00D+00 NAtFMM=   60 NAOKFM=F Big=F
 One-electron integrals computed using PRISM.
 NBasis=     7 RedAO= T  NBF=     7
 NBsUse=     7 1.00D-06 NBFU=     7
 Initial guess read from the read-write file.
 B after Tr=     0.000000    0.000000    0.000000
         Rot=    1.000000    0.000000    0.000000    0.000000 Ang=   0.00 deg.
 Harris functional with IExCor=  205 diagonalized for initial guess.
 ExpMin= 1.69D-01 ExpMax= 1.31D+02 ExpMxC= 1.31D+02 IAcc=3 IRadAn=         5 AccDes= 0.00D+00
 HarFok:  IExCor=  205 AccDes= 0.00D+00 IRadAn=         5 IDoV= 1
 ScaDFX=  1.000000  1.000000  1.000000  1.000000
 FoFCou: FMM=F IPFlag=           0 FMFlag=      100000 FMFlg1=           0
         NFxFlg=           0 DoJE=T BraDBF=F KetDBF=T FulRan=T
         Omega=  0.000000  0.000000  1.000000  0.000000  0.000000 ICntrl=     500 IOpCl=  0
         NMat0=    1 NMatS0=    1 NMatT0=    0 NMatD0=    1 NMtDS0=    0 NMtDT0=    0
         I1Cent=           4 NGrid=           0.
 Symmetry not used in FoFCou.
 Requested convergence on RMS density matrix=1.00D-08 within 128 cycles.
 Requested convergence on MAX density matrix=1.00D-06.
 Requested convergence on             energy=1.00D-06.
 No special actions if energy rises.
 Keep R1 ints in memory in canonical form, NReq=820147.
 SCF Done:  E(RHF) =  -74.9650717130     A.U. after    8 cycles
             Convg  =    0.9802D-11             -V/T =  2.0059
 Calling FoFJK, ICntrl=      2127 FMM=F ISym2X=0 I1Cent= 0 IOpClX= 0 NMat=1 NMatS=1 NMatT=0.
 -------------------------------------------------------------------
 Center     Atomic                   Forces (Hartrees/Bohr)
 Number     Number              X              Y              Z
 -------------------------------------------------------------------
      1        8           0.007588532    0.010737526    0.000000000
      2        1           0.005038890   -0.011611420    0.000000000
      3        1          -0.012627422    0.000873894    0.000000000
 -------------------------------------------------------------------
 Cartesian Forces:  Max     0.012627422 RMS     0.007403537

 GradGradGradGradGradGradGradGradGradGradGradGradGradGradGradGradGradGrad
 Berny optimization.
 Using GEDIIS/GDIIS optimizer.
 Internal  Forces:  Max     0.022664743 RMS     0.013414959
 Search for a local minimum.
 Step number   2 out of a maximum of   20
 All quantities printed in internal units (Hartrees-Bohrs-Radians)
 Mixed Optimization -- RFO/linear search
 Update second derivatives using D2CorX and points    1    2
 DE= -4.37D-03 DEPred=-7.05D-03 R= 6.20D-01
 SS=  1.41D+00  RLast= 2.51D-01 DXNew= 5.0454D-01 7.5322D-01
 Trust test= 6.20D-01 RLast= 2.51D-01 DXMaxT set to 5.05D-01
 The second derivative matrix:
                          R1        R2        A1
           R1           0.52209
           R2          -0.03264   0.52209
           A1          -0.00276  -0.00276   0.26685
 ITU=  1  0
 Use linear search instead of GDIIS.
     Eigenvalues ---    0.26678   0.48952   0.55473
 RFO step:  Lambda=-5.86070467D-04 EMin= 2.66783304D-01
 Quartic linear search produced a step of -0.25890.
 Iteration  1 RMS(Cart)=  0.05221465 RMS(Int)=  0.00126608
 Iteration  2 RMS(Cart)=  0.00096523 RMS(Int)=  0.00000019
 Iteration  3 RMS(Cart)=  0.00000021 RMS(Int)=  0.00000000
 Variable       Old X    -DE/DX   Delta X   Delta X   Delta X     New X
                                 (Linear)    (Quad)   (Total)
    R1        1.86860   0.00362  -0.01410   0.02243   0.00833   1.87693
    R2        1.86860   0.00362  -0.01410   0.02243   0.00833   1.87693
    A1        1.67217   0.02266   0.06187   0.01911   0.08098   1.75315
         Item               Value     Threshold  Converged?
 Maximum Force            0.022665     0.000015     NO 
 RMS     Force            0.013415     0.000010     NO 
 Maximum Displacement     0.055678     0.000060     NO 
 RMS     Displacement     0.051819     0.000040     NO 
 Predicted change in Energy=-9.904622D-04
 GradGradGradGradGradGradGradGradGradGradGradGradGradGradGradGradGradGrad

                          Input orientation:                          
 ---------------------------------------------------------------------
 Center     Atomic      Atomic             Coordinates (Angstroms)
 Number     Number       Type             X           Y           Z
 ---------------------------------------------------------------------
      1          8           0       -2.353300    1.797790    0.000000
      2          1           0       -1.363168    1.876168    0.000000
      3          1           0       -2.609931    2.757293    0.000000
 ---------------------------------------------------------------------
                    Distance matrix (angstroms):
                    1          2          3
     1  O    0.000000
     2  H    0.993229   0.000000
     3  H    0.993229   1.526695   0.000000
 Symmetry turned off by external request.
 Stoichiometry    H2O
 Framework group  C2V[C2(O),SGV(H2)]
 Deg. of freedom     2
 Full point group                 C2V     NOp   4
 Rotational constants (GHZ):    699.1587758    430.2864674    266.3595793
 Standard basis: STO-3G (5D, 7F)
 Integral buffers will be    131072 words long.
 Raffenetti 1 integral format.
 Two-electron integral symmetry is turned off.
     7 basis functions,    21 primitive gaussians,     7 cartesian basis functions
     5 alpha electrons        5 beta electrons
       nuclear repulsion energy         8.8711703302 Hartrees.
 NAtoms=    3 NActive=    3 NUniq=    3 SFac= 1.00D+00 NAtFMM=   60 NAOKFM=F Big=F
 One-electron integrals computed using PRISM.
 NBasis=     7 RedAO= T  NBF=     7
 NBsUse=     7 1.00D-06 NBFU=     7
 Initial guess read from the read-write file.
 B after Tr=     0.000000    0.000000    0.000000
         Rot=    1.000000    0.000000    0.000000    0.000000 Ang=   0.00 deg.
 Harris functional with IExCor=  205 diagonalized for initial guess.
 ExpMin= 1.69D-01 ExpMax= 1.31D+02 ExpMxC= 1.31D+02 IAcc=3 IRadAn=         5 AccDes= 0.00D+00
 HarFok:  IExCor=  205 AccDes= 0.00D+00 IRadAn=         5 IDoV= 1
 ScaDFX=  1.000000  1.000000  1.000000  1.000000
 FoFCou: FMM=F IPFlag=           0 FMFlag=      100000 FMFlg1=           0
         NFxFlg=           0 DoJE=T BraDBF=F KetDBF=T FulRan=T
         Omega=  0.000000  0.000000  1.000000  0.000000  0.000000 ICntrl=     500 IOpCl=  0
         NMat0=    1 NMatS0=    1 NMatT0=    0 NMatD0=    1 NMtDS0=    0 NMtDT0=    0
         I1Cent=           4 NGrid=           0.
 Symmetry not used in FoFCou.
 Requested convergence on RMS density matrix=1.00D-08 within 128 cycles.
 Requested convergence on MAX density matrix=1.00D-06.
 Requested convergence on             energy=1.00D-06.
 No special actions if energy rises.
 Keep R1 ints in memory in canonical form, NReq=820147.
 SCF Done:  E(RHF) =  -74.9658570181     A.U. after    6 cycles
             Convg  =    0.2208D-08             -V/T =  2.0061
 Calling FoFJK, ICntrl=      2127 FMM=F ISym2X=0 I1Cent= 0 IOpClX= 0 NMat=1 NMatS=1 NMatT=0.
 -------------------------------------------------------------------
 Center     Atomic                   Forces (Hartrees/Bohr)
 Number     Number              X              Y              Z
 -------------------------------------------------------------------
      1        8           0.002207746    0.003123889    0.000000000
      2        1          -0.004822558    0.001066162    0.000000000
      3        1           0.002614812   -0.004190052    0.000000000
 -------------------------------------------------------------------
 Cartesian Forces:  Max     0.004822558 RMS     0.002654564

 GradGradGradGradGradGradGradGradGradGradGradGradGradGradGradGradGradGrad
 Berny optimization.
 Using GEDIIS/GDIIS optimizer.
 Internal  Forces:  Max     0.004723387 RMS     0.004161742
 Search for a local minimum.
 Step number   3 out of a maximum of   20
 All quantities printed in internal units (Hartrees-Bohrs-Radians)
 Mixed Optimization -- RFO/linear search
 Update second derivatives using D2CorX and points    1    2    3
 DE= -7.85D-04 DEPred=-9.90D-04 R= 7.93D-01
 SS=  1.41D+00  RLast= 8.18D-02 DXNew= 8.4853D-01 2.4549D-01
 Trust test= 7.93D-01 RLast= 8.18D-02 DXMaxT set to 5.05D-01
 The second derivative matrix:
                          R1        R2        A1
           R1           0.57317
           R2           0.01843   0.57317
           A1           0.04215   0.04215   0.30467
 ITU=  1  1  0
 Use linear search instead of GDIIS.
     Eigenvalues ---    0.29278   0.55473   0.60350
 RFO step:  Lambda=-4.81272443D-05 EMin= 2.92778884D-01
 Quartic linear search produced a step of -0.14030.
 Iteration  1 RMS(Cart)=  0.00823357 RMS(Int)=  0.00001938
 Iteration  2 RMS(Cart)=  0.00001438 RMS(Int)=  0.00000000
 Iteration  3 RMS(Cart)=  0.00000000 RMS(Int)=  0.00000000
 Variable       Old X    -DE/DX   Delta X   Delta X   Delta X     New X
                                 (Linear)    (Quad)   (Total)
    R1        1.87693  -0.00472  -0.00117  -0.00632  -0.00749   1.86944
    R2        1.87693  -0.00472  -0.00117  -0.00632  -0.00749   1.86944
    A1        1.75315  -0.00271  -0.01136   0.00416  -0.00721   1.74594
         Item               Value     Threshold  Converged?
 Maximum Force            0.004723     0.000015     NO 
 RMS     Force            0.004162     0.000010     NO 
 Maximum Displacement     0.008300     0.000060     NO 
 RMS     Displacement     0.008228     0.000040     NO 
 Predicted change in Energy=-4.462899D-05
 GradGradGradGradGradGradGradGradGradGradGradGradGradGradGradGradGradGrad

                          Input orientation:                          
 ---------------------------------------------------------------------
 Center     Atomic      Atomic             Coordinates (Angstroms)
 Number     Number       Type             X           Y           Z
 ---------------------------------------------------------------------
      1          8           0       -2.353377    1.797682    0.000000
      2          1           0       -1.367484    1.879299    0.000000
      3          1           0       -2.605538    2.754270    0.000000
 ---------------------------------------------------------------------
                    Distance matrix (angstroms):
                    1          2          3
     1  O    0.000000
     2  H    0.989265   0.000000
     3  H    0.989265   1.516032   0.000000
 Symmetry turned off by external request.
 Stoichiometry    H2O
 Framework group  C2V[C2(O),SGV(H2)]
 Deg. of freedom     2
 Full point group                 C2V     NOp   4
 Rotational constants (GHZ):    698.7213958    436.3605157    268.6100673
 Standard basis: STO-3G (5D, 7F)
 Integral buffers will be    131072 words long.
 Raffenetti 1 integral format.
 Two-electron integral symmetry is turned off.
     7 basis functions,    21 primitive gaussians,     7 cartesian basis functions
     5 alpha electrons        5 beta electrons
       nuclear repulsion energy         8.9077648128 Hartrees.
 NAtoms=    3 NActive=    3 NUniq=    3 SFac= 1.00D+00 NAtFMM=   60 NAOKFM=F Big=F
 One-electron integrals computed using PRISM.
 NBasis=     7 RedAO= T  NBF=     7
 NBsUse=     7 1.00D-06 NBFU=     7
 Initial guess read from the read-write file.
 B after Tr=     0.000000    0.000000    0.000000
         Rot=    1.000000    0.000000    0.000000    0.000000 Ang=   0.00 deg.
 Requested convergence on RMS density matrix=1.00D-08 within 128 cycles.
 Requested convergence on MAX density matrix=1.00D-06.
 Requested convergence on             energy=1.00D-06.
 No special actions if energy rises.
 Keep R1 ints in memory in canonical form, NReq=820147.
 SCF Done:  E(RHF) =  -74.9659011708     A.U. after    6 cycles
             Convg  =    0.7766D-11             -V/T =  2.0060
 Calling FoFJK, ICntrl=      2127 FMM=F ISym2X=0 I1Cent= 0 IOpClX= 0 NMat=1 NMatS=1 NMatT=0.
 -------------------------------------------------------------------
 Center     Atomic                   Forces (Hartrees/Bohr)
 Number     Number              X              Y              Z
 -------------------------------------------------------------------
      1        8          -0.000132322   -0.000187231    0.000000000
      2        1           0.000162815    0.000025307    0.000000000
      3        1          -0.000030493    0.000161924    0.000000000
 -------------------------------------------------------------------
 Cartesian Forces:  Max     0.000187231 RMS     0.000108966

 GradGradGradGradGradGradGradGradGradGradGradGradGradGradGradGradGradGrad
 Berny optimization.
 Using GEDIIS/GDIIS optimizer.
 Internal  Forces:  Max     0.000164348 RMS     0.000134791
 Search for a local minimum.
 Step number   4 out of a maximum of   20
 All quantities printed in internal units (Hartrees-Bohrs-Radians)
 Mixed Optimization -- En-DIIS/RFO-DIIS
 Update second derivatives using D2CorX and points    1    2    3    4
 DE= -4.42D-05 DEPred=-4.46D-05 R= 9.89D-01
 SS=  1.41D+00  RLast= 1.28D-02 DXNew= 8.4853D-01 3.8434D-02
 Trust test= 9.89D-01 RLast= 1.28D-02 DXMaxT set to 5.05D-01
 The second derivative matrix:
                          R1        R2        A1
           R1           0.58776
           R2           0.03302   0.58776
           A1           0.03300   0.03300   0.30434
 ITU=  1  1  1  0
 Use linear search instead of GDIIS.
     Eigenvalues ---    0.29760   0.55473   0.62752
 RFO step:  Lambda=-3.51832286D-08 EMin= 2.97602396D-01
 Quartic linear search produced a step of -0.02462.
 Iteration  1 RMS(Cart)=  0.00016375 RMS(Int)=  0.00000001
 Iteration  2 RMS(Cart)=  0.00000001 RMS(Int)=  0.00000000
 Variable       Old X    -DE/DX   Delta X   Delta X   Delta X     New X
                                 (Linear)    (Quad)   (Total)
    R1        1.86944   0.00016   0.00018   0.00009   0.00027   1.86971
    R2        1.86944   0.00016   0.00018   0.00009   0.00027   1.86971
    A1        1.74594  -0.00002   0.00018  -0.00031  -0.00013   1.74581
         Item               Value     Threshold  Converged?
 Maximum Force            0.000164     0.000015     NO 
 RMS     Force            0.000135     0.000010     NO 
 Maximum Displacement     0.000155     0.000060     NO 
 RMS     Displacement     0.000164     0.000040     NO 
 Predicted change in Energy=-4.610145D-08
 GradGradGradGradGradGradGradGradGradGradGradGradGradGradGradGradGradGrad

                          Input orientation:                          
 ---------------------------------------------------------------------
 Center     Atomic      Atomic             Coordinates (Angstroms)
 Number     Number       Type             X           Y           Z
 ---------------------------------------------------------------------
      1          8           0       -2.353432    1.797604    0.000000
      2          1           0       -1.367402    1.879300    0.000000
      3          1           0       -2.605565    2.754347    0.000000
 ---------------------------------------------------------------------
                    Distance matrix (angstroms):
                    1          2          3
     1  O    0.000000
     2  H    0.989408   0.000000
     3  H    0.989408   1.516165   0.000000
 Symmetry turned off by external request.
 Stoichiometry    H2O
 Framework group  C2V[C2(O),SGV(H2)]
 Deg. of freedom     2
 Full point group                 C2V     NOp   4
 Rotational constants (GHZ):    698.4075589    436.2835995    268.5345360
 Standard basis: STO-3G (5D, 7F)
 Integral buffers will be    131072 words long.
 Raffenetti 1 integral format.
 Two-electron integral symmetry is turned off.
     7 basis functions,    21 primitive gaussians,     7 cartesian basis functions
     5 alpha electrons        5 beta electrons
       nuclear repulsion energy         8.9064974158 Hartrees.
 NAtoms=    3 NActive=    3 NUniq=    3 SFac= 1.00D+00 NAtFMM=   60 NAOKFM=F Big=F
 One-electron integrals computed using PRISM.
 NBasis=     7 RedAO= T  NBF=     7
 NBsUse=     7 1.00D-06 NBFU=     7
 Initial guess read from the read-write file.
 B after Tr=     0.000000    0.000000    0.000000
         Rot=    1.000000    0.000000    0.000000    0.000000 Ang=   0.00 deg.
 Requested convergence on RMS density matrix=1.00D-08 within 128 cycles.
 Requested convergence on MAX density matrix=1.00D-06.
 Requested convergence on             energy=1.00D-06.
 No special actions if energy rises.
 Keep R1 ints in memory in canonical form, NReq=820147.
 SCF Done:  E(RHF) =  -74.9659012171     A.U. after    6 cycles
             Convg  =    0.1292D-12             -V/T =  2.0060
 Calling FoFJK, ICntrl=      2127 FMM=F ISym2X=0 I1Cent= 0 IOpClX= 0 NMat=1 NMatS=1 NMatT=0.
 -------------------------------------------------------------------
 Center     Atomic                   Forces (Hartrees/Bohr)
 Number     Number              X              Y              Z
 -------------------------------------------------------------------
      1        8          -0.000001874   -0.000002652    0.000000000
      2        1           0.000000811    0.000001415    0.000000000
      3        1           0.000001063    0.000001237    0.000000000
 -------------------------------------------------------------------
 Cartesian Forces:  Max     0.000002652 RMS     0.000001328

 GradGradGradGradGradGradGradGradGradGradGradGradGradGradGradGradGradGrad
 Berny optimization.
 Using GEDIIS/GDIIS optimizer.
 Internal  Forces:  Max     0.000002511 RMS     0.000001635
 Search for a local minimum.
 Step number   5 out of a maximum of   20
 All quantities printed in internal units (Hartrees-Bohrs-Radians)
 Mixed Optimization -- En-DIIS/RFO-DIIS
 Swaping is turned off.
 Update second derivatives using D2CorX and points    2    3    4    5
 DE= -4.63D-08 DEPred=-4.61D-08 R= 1.00D+00
 Trust test= 1.00D+00 RLast= 4.05D-04 DXMaxT set to 5.05D-01
 The second derivative matrix:
                          R1        R2        A1
           R1           0.58942
           R2           0.03468   0.58942
           A1           0.03852   0.03852   0.30015
 ITU=  0  1  1  1
     Eigenvalues ---    0.29123   0.55473   0.63301
 En-DIIS/RFO-DIIS IScMMF=        0 using points:     5    4
 RFO step:  Lambda= 0.00000000D+00.
 DidBck=F Rises=F RFO-DIIS coefs:    1.00921   -0.00921
 Iteration  1 RMS(Cart)=  0.00000476 RMS(Int)=  0.00000000
 Iteration  2 RMS(Cart)=  0.00000000 RMS(Int)=  0.00000000
 Variable       Old X    -DE/DX   Delta X   Delta X   Delta X     New X
                                  (DIIS)     (GDIIS)  (Total)
    R1        1.86971   0.00000   0.00000   0.00000   0.00000   1.86971
    R2        1.86971   0.00000   0.00000   0.00000   0.00000   1.86971
    A1        1.74581   0.00000   0.00000  -0.00001  -0.00001   1.74580
         Item               Value     Threshold  Converged?
 Maximum Force            0.000003     0.000015     YES
 RMS     Force            0.000002     0.000010     YES
 Maximum Displacement     0.000005     0.000060     YES
 RMS     Displacement     0.000005     0.000040     YES
 Predicted change in Energy=-1.303762D-11
 Optimization completed.
    -- Stationary point found.
                           ----------------------------
                           !   Optimized Parameters   !
                           ! (Angstroms and Degrees)  !
 --------------------------                            --------------------------
 ! Name  Definition              Value          Derivative Info.                !
 --------------------------------------------------------------------------------
 ! R1    R(1,2)                  0.9894         -DE/DX =    0.0                 !
 ! R2    R(1,3)                  0.9894         -DE/DX =    0.0                 !
 ! A1    A(2,1,3)              100.0274         -DE/DX =    0.0                 !
 --------------------------------------------------------------------------------
 GradGradGradGradGradGradGradGradGradGradGradGradGradGradGradGradGradGrad

                          Input orientation:                          
 ---------------------------------------------------------------------
 Center     Atomic      Atomic             Coordinates (Angstroms)
 Number     Number       Type             X           Y           Z
 ---------------------------------------------------------------------
      1          8           0       -2.353432    1.797604    0.000000
      2          1           0       -1.367402    1.879300    0.000000
      3          1           0       -2.605565    2.754347    0.000000
 ---------------------------------------------------------------------
                    Distance matrix (angstroms):
                    1          2          3
     1  O    0.000000
     2  H    0.989408   0.000000
     3  H    0.989408   1.516165   0.000000
 Symmetry turned off by external request.
 Stoichiometry    H2O
 Framework group  C2V[C2(O),SGV(H2)]
 Deg. of freedom     2
 Full point group                 C2V     NOp   4
 Rotational constants (GHZ):    698.4075589    436.2835995    268.5345360

 **********************************************************************

            Population analysis using the SCF density.

 **********************************************************************

 Alpha  occ. eigenvalues --  -20.25158  -1.25755  -0.59386  -0.45973  -0.39262
 Alpha virt. eigenvalues --    0.58179   0.69268
          Condensed to atoms (all electrons):
              1          2          3
     1  O    7.822767   0.253882   0.253882
     2  H    0.253882   0.626252  -0.045400
     3  H    0.253882  -0.045400   0.626252
 Mulliken atomic charges:
              1
     1  O   -0.330532
     2  H    0.165266
     3  H    0.165266
 Sum of Mulliken atomic charges =   0.00000
 Mulliken charges with hydrogens summed into heavy atoms:
              1
     1  O    0.000000
 Sum of Mulliken charges with hydrogens summed into heavy atoms =   0.00000
 Electronic spatial extent (au):  <R**2>=            332.4236
 Charge=              0.0000 electrons
 Dipole moment (field-independent basis, Debye):
    X=              0.9865    Y=              1.3958    Z=              0.0000  Tot=              1.7092
 Quadrupole moment (field-independent basis, Debye-Ang):
   XX=             -9.2663   YY=              0.2572   ZZ=             -6.1257
   XY=             -1.7063   XZ=              0.0000   YZ=              0.0000
 Traceless Quadrupole moment (field-independent basis, Debye-Ang):
   XX=             -4.2214   YY=              5.3021   ZZ=             -1.0808
   XY=             -1.7063   XZ=              0.0000   YZ=              0.0000
 Octapole moment (field-independent basis, Debye-Ang**2):
  XXX=             48.6450  YYY=            -13.1436  ZZZ=              0.0000  XYY=              1.2209
  XXY=             -8.4934  XXZ=              0.0000  XZZ=             13.9557  YZZ=            -11.6633
  YYZ=              0.0000  XYZ=              0.0000
 Hexadecapole moment (field-independent basis, Debye-Ang**3):
 XXXX=           -207.2833 YYYY=            -72.5513 ZZZZ=             -3.2653 XXXY=             69.8700
 XXXZ=              0.0000 YYYX=             31.2856 YYYZ=              0.0000 ZZZX=              0.0000
 ZZZY=              0.0000 XXYY=            -26.0379 XXZZ=            -33.4865 YYZZ=            -23.7829
 XXYZ=              0.0000 YYXZ=              0.0000 ZZXY=             26.7361
 N-N= 8.906497415772D+00 E-N=-1.963527540743D+02  KE= 7.451861143541D+01
 1\1\GINC-SAW316\FOpt\RHF\STO-3G\H2O1\FZADEH\08-May-2013\0\\# opt=tight
  hf/sto-3g scf=tight integral=grid=ultrafine nosymmetry output=wfn\\H2
 O Optimization\\0,1\O,-2.3534315027,1.7976043865,0.\H,-1.3674018207,1.
 8792997978,0.\H,-2.6055654866,2.7543473657,0.\\Version=EM64L-G09RevC.0
 1\HF=-74.9659012\RMSD=1.292e-13\RMSF=1.328e-06\Dipole=0.3881033,0.5491
 535,0.\Quadrupole=-3.1384833,3.9420042,-0.8035209,-1.2686119,0.,0.\PG=
 C02V [C2(O1),SGV(H2)]\\@

 Writing a WFN file to gaussian.wfn.


 A MAN BEGINS CUTTING HIS WISDOM TEETH THE 1ST
 TIME HE BITES OFF MORE THAN HE CAN CHEW.
 Job cpu time:  0 days  0 hours  0 minutes  6.4 seconds.
 File lengths (MBytes):  RWF=      5 Int=      0 D2E=      0 Chk=      1 Scr=      1
 Normal termination of Gaussian 09 at Wed May  8 01:28:08 2013.
              job id: 1460974
         exit status: 0
            cpu time: 6s / 16.7h (0 %)
        elapsed time: 9s / 16.7h (0 %)

Job completed successfully
WARNING: Job only used 0% of its requested walltime.
WARNING: Job only used 0% of its requested cpu time.
