h3 at hfs/3-21g level                                                   
SP        UHFS                                                        3-21G               
Number of atoms                            I                3
Charge                                     I                0
Multiplicity                               I                2
Number of electrons                        I                3
Number of alpha electrons                  I                2
Number of beta electrons                   I                1
Number of basis functions                  I                6
Number of independent functions            I                6
Atomic numbers                             I   N=           3
           1           1           1
Nuclear charges                            R   N=           3
  1.00000000E+00  1.00000000E+00  1.00000000E+00
Current cartesian coordinates              R   N=           9
  0.00000000E+00  0.00000000E+00  1.32280829E+00  0.00000000E+00  0.00000000E+00
  0.00000000E+00  1.61997294E-16  0.00000000E+00 -1.32280829E+00
Number of contracted shells                I                6
Number of primitive shells                 I                9
Shell types                                I   N=           6
           0           0           0           0           0           0
Number of primitives per shell             I   N=           6
           2           1           2           1           2           1
Shell to atom map                          I   N=           6
           1           1           2           2           3           3
Primitive exponents                        R   N=           9
  5.44717800E+00  8.24547240E-01  1.83191580E-01  5.44717800E+00  8.24547240E-01
  1.83191580E-01  5.44717800E+00  8.24547240E-01  1.83191580E-01
Contraction coefficients                   R   N=           9
  1.56284979E-01  9.04690877E-01  1.00000000E+00  1.56284979E-01  9.04690877E-01
  1.00000000E+00  1.56284979E-01  9.04690877E-01  1.00000000E+00
Coordinates of each shell                  R   N=          18
  0.00000000E+00  0.00000000E+00  1.32280829E+00  0.00000000E+00  0.00000000E+00
  1.32280829E+00  0.00000000E+00  0.00000000E+00  0.00000000E+00  0.00000000E+00
  0.00000000E+00  0.00000000E+00  1.61997294E-16  0.00000000E+00 -1.32280829E+00
  1.61997294E-16  0.00000000E+00 -1.32280829E+00
Virial Ratio                               R      1.755060928137248E+00
SCF Energy                                 R     -1.412556114057104E+00
Total Energy                               R     -1.412556114057104E+00
S**2                                       R      7.529550078197456E-01
S**2 after annihilation                    R      7.499999999999999E-01
Alpha Orbital Energies                     R   N=           6
 -4.93959157E-01 -1.13961330E-01  2.38730924E-01  7.44216538E-01  8.30143356E-01
  1.46613581E+00
Beta Orbital Energies                      R   N=           6
 -4.34824166E-01  1.84114514E-04  3.24300545E-01  7.87622756E-01  9.42415831E-01
  1.55175481E+00
Alpha MO coefficients                      R   N=          36
  2.18977824E-01  1.44983852E-01  3.09921581E-01  2.63520245E-01  2.18977824E-01
  1.44983852E-01  2.82486479E-01  7.27625454E-01  0.00000000E+00  0.00000000E+00
 -2.82486479E-01 -7.27625454E-01  5.37750721E-02 -2.30614010E+00  2.88750815E-01
  3.60042624E+00  5.37750721E-02 -2.30614010E+00 -5.71704131E-01 -8.96290522E-01
 -6.86061349E-01  2.89913901E+00 -5.71704131E-01 -8.96290522E-01 -8.86525287E-01
  1.10192804E+00  0.00000000E+00  0.00000000E+00  8.86525287E-01 -1.10192804E+00
  8.31882117E-01 -1.46448198E+00 -1.29294186E+00  2.51597208E+00  8.31882117E-01
 -1.46448198E+00
Beta MO coefficients                       R   N=          36
  1.87428851E-01  6.65193309E-02  3.42449733E-01  4.09259469E-01  1.87428851E-01
  6.65193309E-02  2.59181429E-01  7.56223316E-01  0.00000000E+00  0.00000000E+00
 -2.59181429E-01 -7.56223316E-01  4.63722534E-02 -2.28177484E+00  2.98144553E-01
  3.51434088E+00  4.63722534E-02 -2.28177484E+00 -5.26490334E-01 -1.01846067E+00
 -7.59692866E-01  3.09063377E+00 -5.26490334E-01 -1.01846067E+00 -8.93616630E-01
  1.08250197E+00  0.00000000E+00  0.00000000E+00  8.93616630E-01 -1.08250197E+00
  8.69048033E-01 -1.42799273E+00 -1.24036769E+00  2.38695042E+00  8.69048033E-01
 -1.42799273E+00
Total SCF Density                          R   N=          21
  1.62879473E-01  2.49760243E-01  5.54883941E-01  1.32050913E-01  6.77131517E-02
  2.13323206E-01  1.34412122E-01  6.54298463E-02  2.21821407E-01  2.36936233E-01
  3.28225062E-03 -1.61328463E-01  1.32050913E-01  1.34412122E-01  1.62879473E-01
 -1.61328463E-01 -5.03993663E-01  6.77131517E-02  6.54298463E-02  2.49760243E-01
  5.54883941E-01
Spin SCF Density                           R   N=          21
  9.26203243E-02  2.24824960E-01  5.46034298E-01  3.68099362E-03  2.21540976E-02
 -2.12204329E-02 -1.90019421E-02  1.09825142E-02 -5.84801846E-02 -9.80503932E-02
 -6.69768977E-02 -1.86263746E-01  3.68099362E-03 -1.90019421E-02  9.26203243E-02
 -1.86263746E-01 -5.12843306E-01  2.21540976E-02  1.09825142E-02  2.24824960E-01
  5.46034298E-01
Anisotropic Hyperfine tensors              R   N=          18
  6.00961492E-03  0.00000000E+00  6.00961492E-03  2.62635723E-18  0.00000000E+00
 -1.20192298E-02 -1.63401389E-01  0.00000000E+00 -1.63401389E-01 -4.33486409E-17
  0.00000000E+00  3.26802778E-01  6.00961492E-03  0.00000000E+00  6.00961492E-03
  1.19172172E-17  0.00000000E+00 -1.20192298E-02
Isotropic Hyperfine splittings             R   N=           3
  1.55573251E-01 -2.69427439E-02  1.55573251E-01
Mulliken Charges                           R   N=           3
  8.28240185E-02 -1.65648037E-01  8.28240185E-02
Dipole Moment                              R   N=           3
  9.93037684E-18  0.00000000E+00  0.00000000E+00
Quadrupole Moment                          R   N=           6
  1.88328242E-01  1.88328242E-01 -3.76656485E-01  0.00000000E+00  3.45953369E-17
  0.00000000E+00
