h3 at PBE/3-21g level
SP        UPBEPBE                                                     3-21G
Number of atoms                            I                3
Charge                                     I                0
Multiplicity                               I                2
Number of electrons                        I                3
Number of alpha electrons                  I                2
Number of beta electrons                   I                1
Number of basis functions                  I                6
Number of independent functions            I                6
Number of point charges in /Mol/           I                0
Number of translation vectors              I                0
Atomic numbers                             I   N=           3
           1           1           1
Nuclear charges                            R   N=           3
  1.00000000E+00  1.00000000E+00  1.00000000E+00
Current cartesian coordinates              R   N=           9
  0.00000000E+00  0.00000000E+00  1.32280829E+00  0.00000000E+00  0.00000000E+00
  0.00000000E+00  1.61997294E-16  0.00000000E+00 -1.32280829E+00
Integer atomic weights                     I   N=           3
           1           1           1
Real atomic weights                        R   N=           3
  1.00782504E+00  1.00782504E+00  1.00782504E+00
Number of contracted shells                I                6
Number of primitive shells                 I                9
Pure/Cartesian d shells                    I                1
Pure/Cartesian f shells                    I                0
Highest angular momentum                   I                0
Largest degree of contraction              I                2
Shell types                                I   N=           6
           0           0           0           0           0           0
Number of primitives per shell             I   N=           6
           2           1           2           1           2           1
Shell to atom map                          I   N=           6
           1           1           2           2           3           3
Primitive exponents                        R   N=           9
  5.44717800E+00  8.24547240E-01  1.83191580E-01  5.44717800E+00  8.24547240E-01
  1.83191580E-01  5.44717800E+00  8.24547240E-01  1.83191580E-01
Contraction coefficients                   R   N=           9
  1.56284979E-01  9.04690877E-01  1.00000000E+00  1.56284979E-01  9.04690877E-01
  1.00000000E+00  1.56284979E-01  9.04690877E-01  1.00000000E+00
Coordinates of each shell                  R   N=          18
  0.00000000E+00  0.00000000E+00  1.32280829E+00  0.00000000E+00  0.00000000E+00
  1.32280829E+00  0.00000000E+00  0.00000000E+00  0.00000000E+00  0.00000000E+00
  0.00000000E+00  0.00000000E+00  1.61997294E-16  0.00000000E+00 -1.32280829E+00
  1.61997294E-16  0.00000000E+00 -1.32280829E+00
Constraint Structure                       R   N=           9
  0.00000000E+00  0.00000000E+00  1.32280829E+00  0.00000000E+00  0.00000000E+00
  0.00000000E+00  1.61997294E-16  0.00000000E+00 -1.32280829E+00
Virial Ratio                               R      1.817529357582522E+00
SCF Energy                                 R     -1.593208400939354E+00
Total Energy                               R     -1.593208400939354E+00
S**2                                       R      7.529056206314470E-01
S**2 after annihilation                    R      7.500000000000013E-01
RMS Density                                R      1.170868623915889E-09
Alpha Orbital Energies                     R   N=           6
 -5.41141676E-01 -1.56826691E-01  2.13089637E-01  7.13565167E-01  7.86810564E-01
  1.40663544E+00
Beta Orbital Energies                      R   N=           6
 -4.96730336E-01 -5.81411249E-02  2.73586652E-01  7.41987185E-01  8.76161160E-01
  1.47488421E+00
Alpha MO coefficients                      R   N=          36
  2.29961953E-01  1.38896817E-01  3.19310864E-01  2.50698443E-01  2.29961953E-01
  1.38896817E-01  3.03425678E-01  7.01295338E-01  0.00000000E+00  0.00000000E+00
 -3.03425678E-01 -7.01295338E-01  4.68064446E-02 -2.28401203E+00  3.05983337E-01
  3.54923110E+00  4.68064446E-02 -2.28401203E+00 -5.75393506E-01 -8.96980854E-01
 -6.67557798E-01  2.90530879E+00 -5.75393506E-01 -8.96980854E-01 -8.79578622E-01
  1.11886955E+00  0.00000000E+00  0.00000000E+00  8.79578622E-01 -1.11886955E+00
  8.26780192E-01 -1.49892250E+00 -1.29637518E+00  2.58203879E+00  8.26780192E-01
 -1.49892250E+00
Beta MO coefficients                       R   N=          36
  1.96665668E-01  6.95238033E-02  3.55363229E-01  3.80297406E-01  1.96665668E-01
  6.95238033E-02  2.75228411E-01  7.36610986E-01  0.00000000E+00  0.00000000E+00
 -2.75228411E-01 -7.36610986E-01  4.27757609E-02 -2.26320730E+00  3.11561385E-01
  3.46971064E+00  4.27757609E-02 -2.26320730E+00 -5.30302825E-01 -1.02295573E+00
 -7.41383681E-01  3.10387385E+00 -5.30302825E-01 -1.02295573E+00 -8.88805387E-01
  1.09594182E+00  0.00000000E+00  0.00000000E+00  8.88805387E-01 -1.09594182E+00
  8.64863156E-01 -1.45394888E+00 -1.24450952E+00  2.43927933E+00  8.64863156E-01
 -1.45394888E+00
Total SCF Density                          R   N=          21
  1.83627027E-01  2.58404942E-01  5.15941036E-01  1.43317097E-01  6.90574659E-02
  2.28242453E-01  1.32442547E-01  6.12609378E-02  2.15194451E-01  2.07475826E-01
 -5.07257243E-04 -1.67177085E-01  1.43317097E-01  1.32442547E-01  1.83627027E-01
 -1.67177085E-01 -4.67689266E-01  6.90574659E-02  6.12609378E-02  2.58404942E-01
  5.15941036E-01
Spin SCF Density                           R   N=          21
  1.06272257E-01  2.31059051E-01  5.06273917E-01  3.54160283E-03  1.96450594E-02
 -2.43235969E-02 -1.71403399E-02  8.38149377E-03 -5.50929776E-02 -8.17764072E-02
 -7.78620274E-02 -1.94522975E-01  3.54160283E-03 -1.71403399E-02  1.06272257E-01
 -1.94522975E-01 -4.77356384E-01  1.96450594E-02  8.38149377E-03  2.31059051E-01
  5.06273917E-01
Mulliken Charges                           R   N=           3
  7.24015441E-02 -1.44803088E-01  7.24015441E-02
Dipole Moment                              R   N=           3
  8.41520775E-18  0.00000000E+00  5.55111512E-17
Quadrupole Moment                          R   N=           6
  1.78320183E-01  1.78320183E-01 -3.56640366E-01  0.00000000E+00  3.27568862E-17
  0.00000000E+00
