He atom - decontracted 6-31G** Polarization basis set (only p-orbital)  
SP        RHF                                                         Gen                 
Number of atoms                            I                1
Info1-9                                    I   N=           9
          19          13           0           0           0         111
           1           1           2
Charge                                     I                0
Multiplicity                               I                1
Number of electrons                        I                2
Number of alpha electrons                  I                1
Number of beta electrons                   I                1
Number of basis functions                  I                3
Number of independent functions            I                3
Number of point charges in /Mol/           I                0
Number of translation vectors              I                0
Atomic numbers                             I   N=           1
           2
Nuclear charges                            R   N=           1
  2.00000000E+00
Current cartesian coordinates              R   N=           3
  0.00000000E+00  0.00000000E+00  0.00000000E+00
Force Field                                I                0
Int Atom Types                             I   N=           1
           0
MM charges                                 R   N=           1
  0.00000000E+00
Integer atomic weights                     I   N=           1
           4
Real atomic weights                        R   N=           1
  4.00260325E+00
Atom fragment info                         I   N=           1
           0
Atom residue num                           I   N=           1
           0
Nuclear spins                              I   N=           1
           0
Nuclear ZEff                               R   N=           1
 -2.00000000E+00
Nuclear QMom                               R   N=           1
  0.00000000E+00
Nuclear GFac                               R   N=           1
  0.00000000E+00
MicOpt                                     I   N=           1
          -1
Number of contracted shells                I                1
Number of primitive shells                 I                1
Pure/Cartesian d shells                    I                1
Pure/Cartesian f shells                    I                0
Highest angular momentum                   I                1
Largest degree of contraction              I                1
Shell types                                I   N=           1
           1
Number of primitives per shell             I   N=           1
           1
Shell to atom map                          I   N=           1
           1
Primitive exponents                        R   N=           1
  1.10000000E+00
Contraction coefficients                   R   N=           1
  1.00000000E+00
Coordinates of each shell                  R   N=           3
  0.00000000E+00  0.00000000E+00  0.00000000E+00
Constraint Structure                       R   N=           3
  0.00000000E+00  0.00000000E+00  0.00000000E+00
Num ILSW                                   I              100
ILSW                                       I   N=         100
           0           1           0           0           2           0
           0           0           0           0           0          -1
           0           0           0           0           0           0
           0           0           0           0           0           0
           1           0           0           0           0           0
           0           0      100000           0          -1           0
           0           0           0           0           0           0
           0           0           0           1           0           0
           0           0           1           0           0           0
           0           0           4          40           0           0
           0           0           0           0           0           0
           0           0           0           0           0           0
           0           0           0           0           0           0
           0           0           0           0           0           0
           0           0           0           0           0           0
           0           0           0           0           0           0
           0           0           0           0
Num RLSW                                   I               40
RLSW                                       R   N=          40
  1.00000000E+00  1.00000000E+00  1.00000000E+00  1.00000000E+00  1.00000000E+00
  0.00000000E+00  0.00000000E+00  1.00000000E+00  0.00000000E+00  0.00000000E+00
  0.00000000E+00  0.00000000E+00  1.00000000E+00  0.00000000E+00  0.00000000E+00
  0.00000000E+00  0.00000000E+00  1.00000000E+00  0.00000000E+00  0.00000000E+00
  0.00000000E+00  0.00000000E+00  1.00000000E+00  0.00000000E+00  0.00000000E+00
  0.00000000E+00  0.00000000E+00  1.00000000E+00  0.00000000E+00  0.00000000E+00
  0.00000000E+00  0.00000000E+00  1.00000000E+00  0.00000000E+00  0.00000000E+00
  0.00000000E+00  0.00000000E+00  0.00000000E+00  1.00000000E+00  1.00000000E+00
MxBond                                     I                1
NBond                                      I   N=           1
           0
IBond                                      I   N=           1
           0
RBond                                      R   N=           1
  0.00000000E+00
Virial Ratio                               R      6.357449552357397E-01
SCF Energy                                 R      2.003402746203432E+00
Total Energy                               R      2.003402746203432E+00
External E-field                           R   N=          35
  0.00000000E+00  0.00000000E+00  0.00000000E+00  0.00000000E+00  0.00000000E+00
  0.00000000E+00  0.00000000E+00  0.00000000E+00  0.00000000E+00  0.00000000E+00
  0.00000000E+00  0.00000000E+00  0.00000000E+00  0.00000000E+00  0.00000000E+00
  0.00000000E+00  0.00000000E+00  0.00000000E+00  0.00000000E+00  0.00000000E+00
  0.00000000E+00  0.00000000E+00  0.00000000E+00  0.00000000E+00  0.00000000E+00
  0.00000000E+00  0.00000000E+00  0.00000000E+00  0.00000000E+00  0.00000000E+00
  0.00000000E+00  0.00000000E+00  0.00000000E+00  0.00000000E+00  0.00000000E+00
IOpCl                                      I                0
IROHF                                      I                0
Alpha Orbital Energies                     R   N=           3
  1.48494511E+00  2.15556908E+00  2.15556908E+00
Alpha MO coefficients                      R   N=           9
  0.00000000E+00  0.00000000E+00  1.00000000E+00  0.00000000E+00  1.00000000E+00
  0.00000000E+00  1.00000000E+00  0.00000000E+00  0.00000000E+00
Total SCF Density                          R   N=           6
  0.00000000E+00  0.00000000E+00  0.00000000E+00  0.00000000E+00  0.00000000E+00
  2.00000000E+00
QEq coupling tensors                       R   N=           6
 -1.96375728E+00  0.00000000E+00 -1.96375728E+00  0.00000000E+00  0.00000000E+00
  3.92751456E+00
Mulliken Charges                           R   N=           1
 -4.44089210E-16
ONIOM Charges                              I   N=          16
           0           0           0           0           0           0
           0           0           0           0           0           0
           0           0           0           0
ONIOM Multiplicities                       I   N=          16
           1           0           0           0           0           0
           0           0           0           0           0           0
           0           0           0           0
Atom Layers                                I   N=           1
           1
Atom Modifiers                             I   N=           1
           0
Force Field                                I                0
Int Atom Modified Types                    I   N=           1
           0
Link Atoms                                 I   N=           1
           0
Atom Modified MM Charges                   R   N=           1
  0.00000000E+00
Link Distances                             R   N=           4
  0.00000000E+00  0.00000000E+00  0.00000000E+00  0.00000000E+00
Cartesian Gradient                         R   N=           3
  0.00000000E+00  0.00000000E+00  0.00000000E+00
Dipole Moment                              R   N=           3
  0.00000000E+00  0.00000000E+00  0.00000000E+00
Quadrupole Moment                          R   N=           6
  3.03030303E-01  3.03030303E-01 -6.06060606E-01  0.00000000E+00  0.00000000E+00
  0.00000000E+00
