Foo Bar                                                                 
SP        RHF                                                         CC-pVDZ             
Number of atoms                            I                3
Charge                                     I                0
Multiplicity                               I                1
Number of electrons                        I               10
Number of alpha electrons                  I                5
Number of beta electrons                   I                5
Number of basis functions                  I               25
Number of independant functions            I               25
Number of point charges in /Mol/           I                0
Number of contracted shells                I               12
Highest angular momentum                   I                2
Largest degree of contraction              I                7
Number of primitive shells                 I               30
Pure/Cartesian d shells                    I                1
Pure/Cartesian f shells                    I                0
Virial Ratio                               R      1.998816248919707E+00
SCF Energy                                 R     -7.601117746578384E+01
Total Energy                               R     -7.601117746578384E+01
RMS Density                                R      6.765602604793789E-09
Atomic numbers                             I   N=           3
           8           1           1
Nuclear charges                            R   N=           3
  8.00000000E+00  1.00000000E+00  1.00000000E+00
Current cartesian coordinates              R   N=           9
  0.00000000E+00  0.00000000E+00  1.88972613E-01  0.00000000E+00  1.88972613E-01
  1.79523983E+00  1.69257101E+00 -1.88972613E-01 -5.98406347E-01
Integer atomic weights                     I   N=           3
          16           1           1
Real atomic weights                        R   N=           3
  1.59949146E+01  1.00782504E+00  1.00782504E+00
Shell types                                I   N=          12
           0           0           0           1           1           2
           0           0           1           0           0           1
Number of primitives per shell             I   N=          12
           7           7           1           3           1           1
           3           1           1           3           1           1
Shell to atom map                          I   N=          12
           1           1           1           1           1           1
           2           2           2           3           3           3
Primitive exponents                        R   N=          30
  1.17200000E+04  1.75900000E+03  4.00800000E+02  1.13700000E+02  3.70300000E+01
  1.32700000E+01  5.02500000E+00  1.17200000E+04  1.75900000E+03  1.13700000E+02
  3.70300000E+01  1.32700000E+01  5.02500000E+00  1.01300000E+00  3.02300000E-01
  1.77000000E+01  3.85400000E+00  1.04600000E+00  2.75300000E-01  1.18500000E+00
  1.30100000E+01  1.96200000E+00  4.44600000E-01  1.22000000E-01  7.27000000E-01
  1.30100000E+01  1.96200000E+00  4.44600000E-01  1.22000000E-01  7.27000000E-01
Contraction coefficients                   R   N=          30
  7.11864434E-04  5.48520199E-03  2.79099296E-02  1.05133208E-01  2.84002490E-01
  4.51673946E-01  2.73208126E-01 -3.06123094E-07 -6.17623398E-05 -4.15727069E-03
 -1.41000884E-02 -1.26138481E-01 -1.09614598E-01  1.09868833E+00  1.00000000E+00
  6.26791663E-02  3.33536566E-01  7.41239642E-01  1.00000000E+00  1.00000000E+00
  3.34987264E-02  2.34800801E-01  8.13682958E-01  1.00000000E+00  1.00000000E+00
  3.34987264E-02  2.34800801E-01  8.13682958E-01  1.00000000E+00  1.00000000E+00
Coordinates of each shell                  R   N=          36
  0.00000000E+00  0.00000000E+00  1.88972613E-01  0.00000000E+00  0.00000000E+00
  1.88972613E-01  0.00000000E+00  0.00000000E+00  1.88972613E-01  0.00000000E+00
  0.00000000E+00  1.88972613E-01  0.00000000E+00  0.00000000E+00  1.88972613E-01
  0.00000000E+00  0.00000000E+00  1.88972613E-01  0.00000000E+00  1.88972613E-01
  1.79523983E+00  0.00000000E+00  1.88972613E-01  1.79523983E+00  0.00000000E+00
  1.88972613E-01  1.79523983E+00  1.69257101E+00 -1.88972613E-01 -5.98406347E-01
  1.69257101E+00 -1.88972613E-01 -5.98406347E-01  1.69257101E+00 -1.88972613E-01
 -5.98406347E-01
Alpha Orbital Energies                     R   N=          25
 -2.05391159E+01 -1.35051458E+00 -7.38580958E-01 -5.49918559E-01 -4.92650826E-01
  1.87902674E-01  2.59332062E-01  7.83231060E-01  9.16412893E-01  1.15004703E+00
  1.19586209E+00  1.25044996E+00  1.45986635E+00  1.48994336E+00  1.74408164E+00
  1.79261791E+00  1.90656094E+00  2.39973138E+00  2.73728022E+00  3.22490685E+00
  3.44626414E+00  3.45394531E+00  3.98699745E+00  4.16854045E+00  6.04287830E+00
Alpha MO coefficients                      R   N=         625
  9.96921808E-01  1.65385781E-02 -8.99996963E-04  1.20537438E-03  6.42368929E-05
  1.12918962E-03 -3.49778169E-04  1.32140456E-05 -5.69079039E-05 -1.27446555E-03
 -1.29307239E-03 -9.07644925E-04 -4.84282757E-06 -2.75214057E-05  5.47154463E-05
 -6.32141026E-04  2.21888673E-04 -2.62048175E-06  9.16944960E-05  7.78135394E-04
 -6.45825216E-05  2.06062399E-04  3.98190906E-04 -4.13763493E-05 -1.59048941E-04
 -2.03951361E-01  4.34656557E-01  3.48714161E-01  4.85821181E-02  5.25227955E-03
  6.81490487E-02 -7.70633634E-03 -1.38968720E-03 -1.55407686E-02  1.25597080E-03
 -1.11468348E-03  9.48188103E-03 -2.77502861E-04 -9.40461188E-04  1.51588244E-03
  2.43617500E-01  1.10510373E-02  7.51106882E-03 -5.98459228E-03 -4.72350798E-02
  1.62745952E-01  1.02122386E-02 -3.05562235E-02  4.55633644E-03  2.39453543E-02
  1.49088673E-02 -3.43696499E-02 -9.68422476E-02 -2.18993449E-01  6.37421799E-02
  4.35856595E-01 -8.80059327E-02  2.49006472E-02  1.69077064E-01 -1.93201224E-02
 -1.96163056E-03  2.26811231E-02  2.36228690E-03  1.04747950E-02  2.77400598E-03
  3.58277417E-01  6.57797392E-02 -1.04717710E-02 -3.79401821E-03 -3.73155364E-02
 -3.19331696E-01 -8.45964460E-02  4.07075677E-02 -3.03385888E-03 -6.09294042E-03
  6.34405244E-02 -1.38781366E-01 -3.32607453E-01  4.88324744E-01  4.75858618E-03
  2.76705972E-01  3.39006446E-01  3.53881318E-03  1.94095728E-01  1.65242568E-02
 -6.80333360E-03  8.78265780E-03 -2.47935021E-04  1.10176648E-02  1.51279393E-03
  1.60104744E-01  1.36474402E-02  2.87837833E-02 -2.91888255E-03 -1.08845255E-02
  2.09347601E-01  5.89358966E-02 -8.46366791E-03  4.01378231E-03  3.00223156E-02
  2.25714554E-10 -5.44011384E-10 -1.42369348E-09  3.54998780E-02  6.23688922E-01
 -7.33751666E-02  2.79615835E-02  4.91250416E-01 -5.77941661E-02  1.33932502E-03
  8.56194215E-04 -2.19551914E-03  1.36133514E-02 -9.84986871E-04  1.07163046E-02
  2.33142654E-10 -5.56480126E-12  1.93173112E-03  3.39381252E-02 -3.99272061E-03
  1.25102184E-09  1.20805402E-09  1.64480790E-03  2.88972402E-02 -3.39967524E-03
 -9.35161228E-02  8.46681095E-02  1.08691651E+00  1.76837023E-01 -6.49552805E-03
  3.03440994E-02  3.22447013E-01 -1.31226939E-02  4.44612295E-02 -2.49518055E-02
 -4.01465758E-02 -2.56558800E-02 -1.06767146E-03 -4.41621639E-04  2.02888710E-03
 -5.13495362E-02 -6.55296630E-01  3.47363607E-03  1.79983440E-03  1.69791832E-02
 -8.27313754E-02 -1.01968703E+00  1.78417768E-02 -1.87206249E-03 -7.28044348E-03
  1.71943801E-02 -1.37702168E-02 -2.95723746E-01  1.31949916E-01 -3.37161344E-02
 -2.22748028E-01  3.37474550E-01 -8.57603039E-02 -5.65687932E-01  2.38576745E-02
  1.17686105E-02 -1.59556376E-02 -1.32977290E-03 -4.71416080E-03 -3.53799721E-03
  8.19882017E-03  1.63049402E+00 -2.67975710E-03 -4.65892393E-03 -4.08973555E-02
 -2.23305188E-02 -1.25028872E+00  2.05736723E-02 -1.71847993E-03 -4.65326459E-03
  3.96244802E-02 -1.67883927E-01  1.46893793E-01 -2.73289461E-01  2.35976892E-02
  6.83592998E-02 -1.42060041E-01  2.52369366E-02  1.45783437E-01  6.64452879E-02
 -5.78190935E-02  2.54954309E-03 -1.66600423E-02 -7.10170166E-02  1.25280988E-02
  5.07648890E-02  5.30993922E-02 -1.63357858E-01  1.77389445E-02  7.17463342E-02
  1.24300356E+00 -9.09726498E-01  2.22613509E-01 -2.91131626E-02 -1.39758520E-01
  4.77847048E-02 -1.08606952E-01 -3.31250126E-02 -6.87461903E-03 -2.64587967E-02
 -2.28225803E-01  1.82528489E-01 -6.73088464E-02 -4.83815496E-01 -5.75435839E-02
 -4.92056134E-02  1.23853785E-01 -5.70681634E-04 -8.10937196E-03  2.43115132E-02
  1.25397175E+00 -6.34059199E-01 -1.40814122E-02  4.13707881E-02  3.44838925E-01
 -2.07600728E-01  1.02360055E-01 -5.63993491E-02 -2.18205105E-02 -2.12761091E-01
 -2.15572453E-02  7.58469514E-02  7.26402866E-01 -5.73947408E-01 -3.03299934E-02
 -5.35488303E-01  8.13328127E-01  7.15588990E-02  1.00174956E+00  3.03786769E-02
  2.39193093E-02  7.46274782E-02 -4.04866177E-04  5.74237640E-04  6.95484565E-03
 -5.54865116E-01 -3.85091963E-01  2.19559118E-02  3.60524753E-02  3.17068599E-01
 -3.58812982E-01  7.84481136E-02  1.91261387E-01 -7.20130280E-03  3.13237170E-02
  2.95520883E-11  4.57277158E-11  6.75040372E-10 -5.34739597E-02 -9.39471322E-01
  1.10526037E-01  5.91130206E-02  1.03854267E+00 -1.22181487E-01  1.77824776E-04
 -1.72125943E-03  1.54343485E-03  1.74717051E-03 -6.43331281E-04 -7.45745661E-03
 -1.16113251E-09 -1.71743409E-09 -7.54426464E-03 -1.32543394E-01  1.55933412E-02
  7.35867949E-10  1.28381615E-09  4.34374315E-03  7.63141973E-02 -8.97814054E-03
  1.76663329E-02 -1.52427399E-02  1.89548612E-02  5.44365629E-01 -8.31901544E-02
 -4.43745031E-01 -1.21047549E+00  2.25502153E-01  1.33112426E+00 -2.85338268E-02
 -1.37144468E-02  3.80803054E-02  1.90026279E-03  8.19936022E-03  6.64876655E-03
 -3.37868959E-01 -8.41959658E-01 -7.28038958E-02  4.04237897E-02  3.08378722E-01
  5.26527075E-01  7.89061318E-01 -3.32795380E-01  4.40497955E-02  2.13412454E-01
 -1.29893531E-11 -3.64497237E-10  7.79924445E-10  1.03823158E-02  1.82404443E-01
 -2.14593462E-02 -9.49533853E-03 -1.66821349E-01  1.96260411E-02  8.00492690E-03
 -2.60126271E-02  1.80077000E-02  8.03417804E-02 -1.45826285E-02 -8.66055090E-02
 -4.31365492E-11 -2.03994845E-10 -3.47381101E-02 -6.10305621E-01  7.18006614E-02
 -7.14919590E-11 -9.78137907E-11  4.12108034E-02  7.24022831E-01 -8.51791565E-02
 -2.00303922E-02 -8.79934915E-01  1.83851850E+00  5.13755156E-02  6.50205505E-03
  8.01236233E-02 -2.60050964E-01 -8.06478899E-03 -1.94366805E-01 -1.17153831E-01
 -1.97551434E-01 -1.65400946E-01  2.47435487E-03  6.59133417E-02  6.07657652E-04
  2.96485280E-02 -4.41528060E-01  5.24900700E-01 -6.79590262E-03  1.96188731E-01
 -6.98139282E-03 -3.37053349E-01  3.94958845E-01  2.35004291E-02  3.90839966E-01
 -9.44059834E-12 -1.67475076E-10  4.00497954E-10 -5.97168523E-03 -1.04915121E-01
  1.23429554E-02 -3.45786650E-02 -6.07504370E-01  7.14711024E-02  1.27122125E-02
  4.09113139E-03 -1.68033440E-02  1.29078611E-01 -1.04762289E-02  8.21841446E-02
 -1.06840206E-10 -4.67923906E-11  4.83801391E-02  8.49979195E-01 -9.99975523E-02
 -1.33432134E-10 -5.85992823E-11  4.07960933E-02  7.16736889E-01 -8.43219871E-02
 -8.08434935E-02 -1.15121634E+00  2.84721924E+00 -1.84208210E-02  7.31597150E-03
  5.32735211E-02  7.86340743E-01  3.48464842E-02  6.76637174E-01 -3.17734010E-01
 -7.45669455E-02 -2.63971356E-01  8.71265218E-03 -6.33104191E-02 -2.24961744E-02
 -8.65682243E-01 -4.29943201E-01 -4.35760897E-01  3.48274127E-02  8.52061196E-02
 -6.41211841E-01 -2.49648197E-01 -1.71642557E-01 -5.24798081E-02 -5.29121309E-01
  1.42898777E-03  1.14975820E-01 -6.79169209E-02  4.94966758E-02 -1.72229397E-02
 -1.22447840E-01 -6.37524763E-01  1.41260827E-01  8.92274113E-01  5.64740911E-02
  1.96351977E-02  9.90408247E-03 -3.25006275E-03 -7.00765996E-03 -9.13959895E-04
 -5.18052362E-01 -1.18976831E-01  8.63716058E-01 -5.06332521E-02 -1.25053834E-02
  4.93027751E-01  1.17607224E-01 -2.35203531E-01 -6.98243846E-02 -7.07301850E-01
 -2.03075702E-02  2.92994059E-01  7.70792164E-01  6.69823550E-01 -5.94876711E-02
 -1.81575707E-01  3.56728830E-01 -3.32541851E-02 -1.10070443E-01 -8.35614323E-02
  2.49465105E-01  5.53305779E-02  2.70320663E-02  4.13113972E-02 -2.93107304E-02
 -2.16922839E-01  9.60651731E-02 -2.51833799E-01  2.99071944E-02  1.32370627E-01
 -6.38844851E-01 -3.84217707E-01  1.18090347E+00 -1.27243817E-01 -5.10235719E-01
  3.44862168E-02  6.06782089E-01  4.09705087E-01 -2.85234988E-02  1.03268870E-01
  8.63985348E-01 -1.76255504E-02  2.24739930E-02  1.82501466E-01  1.60159347E-01
  3.10721791E-01 -1.63208820E-01  7.37379158E-03 -2.52747846E-02 -6.38769769E-02
 -7.96489152E-01 -2.96920584E-01  3.06892071E-02  1.58721519E-01  1.36398076E+00
 -4.74322433E-02  1.35885967E-01 -1.10229706E-01 -3.80178148E-04 -5.65621050E-02
  3.10803690E-12 -2.41436463E-11 -4.10232673E-11 -7.68889269E-05 -1.35084282E-03
  1.58922665E-04  1.54632153E-02  2.71669564E-01 -3.19611251E-02  9.79363567E-02
 -4.92248861E-02 -4.87114706E-02  9.91783139E-01 -1.03264120E-01  2.42393965E-01
  2.89637978E-11  1.12844303E-11 -1.41069085E-02 -2.47840930E-01  2.91577565E-02
 -1.95148585E-11  2.09042538E-12 -2.54486999E-02 -4.47102173E-01  5.26002556E-02
 -5.03928785E-11 -1.35575646E-10  1.56413627E-09  2.27847203E-03  4.00299311E-02
 -4.70940359E-03  9.11143038E-03  1.60076541E-01 -1.88325339E-02 -2.43573933E-02
  2.40378030E-01 -2.16020637E-01 -2.39165709E-01  8.94074623E-02  1.04378904E+00
 -7.36161426E-10 -9.41642673E-11 -3.36784944E-02 -5.91689466E-01  6.96105258E-02
 -8.88394483E-10 -1.99353902E-10  1.15229592E-02  2.02444135E-01 -2.38169579E-02
 -2.84818482E-02 -8.34200011E-02  9.32665029E-01  1.19993450E-01  5.64416674E-04
  6.28519615E-02  6.31465875E-01 -1.08512086E-02  2.13276277E-01  6.81087635E-01
 -6.73529196E-01 -5.39366524E-02 -3.91057648E-03  7.26111380E-01  4.34680001E-02
 -4.32531189E-01 -5.26304885E-02 -5.53850833E-01  5.39419468E-02  1.90546176E-01
 -5.47159101E-01 -1.22189009E-01  1.09715968E-01 -6.50506663E-02 -4.99848623E-01
 -6.43288796E-02  2.78806890E-02  1.74663886E+00  3.14975046E-01 -1.27240878E-02
  4.42343495E-02  7.09238860E-01 -6.00305557E-02 -1.67120576E-01  5.54015708E-01
 -7.74915288E-01  3.15428260E-02 -1.99938815E-01 -9.42058672E-01  1.66824093E-01
 -5.14761772E-01 -2.37115767E-02  1.85140174E-01  2.67067727E-02  3.16580835E-01
 -1.33121294E+00 -2.79601785E-01  9.33118397E-01 -9.42104696E-02 -3.49333961E-01
  2.66216035E-02 -2.72610451E-01 -1.54339177E+00  3.61248905E-02 -7.97045330E-02
 -6.60010830E-01  1.96289266E-01 -1.56149382E-01 -1.23230241E+00  7.89367769E-01
  5.44307084E-01 -1.21153582E+00 -2.89147602E-02 -1.21430907E-01 -2.34668843E-01
  2.14324075E+00  3.84114181E-01 -5.63765938E-04 -1.41247216E-01 -1.20087409E+00
 -2.39140237E-01 -1.54716632E-01  1.61100969E-01 -1.95935066E-02 -8.86020250E-02
  4.19175425E-01 -1.58190102E+00 -1.31401178E+00  1.26513973E-01  1.76249758E-02
  2.11021428E-01  2.20679189E-02  1.22219280E-02  1.14563140E-01  1.48962180E+00
  1.34385125E+00  1.67947681E+00 -2.12408757E-02 -9.55726459E-02  5.18941802E-02
 -5.75432493E-01  2.20481661E-01  2.10247286E-02  5.11314955E-02  4.44789754E-01
 -2.31558876E-01  1.69977949E-01  2.61878112E-01 -2.83145618E-02 -1.13973679E-01
Total SCF Density                          R   N=         325
  2.07939245E+00 -1.62955805E-01  4.19282776E-01 -1.89125108E-01  4.02088326E-01
  4.83217029E-01  3.80158169E-02 -7.82143514E-02 -2.48544888E-01  5.80082206E-01
  4.90081279E-04 -1.13439941E-03 -1.18483833E-02  2.15214809E-02  7.86202343E-01
  2.25582452E-02 -4.74835308E-02 -2.20960558E-01  8.07600211E-02 -3.26121790E-02
  5.53133299E-01  4.28353885E-02 -9.47568784E-02 -2.13840744E-01  3.70871560E-01
  2.68046659E-02  1.05739763E-01  2.47023549E-01  1.78469337E-03 -3.90153247E-03
 -8.14617296E-03  2.72936865E-02  6.15968411E-01 -4.86159001E-02  2.55102402E-02
  4.83922937E-01  3.58942209E-02 -7.90076560E-02 -1.72701447E-01  1.09896439E-01
 -4.88524947E-02  2.61164609E-01  9.88473682E-02 -4.69456305E-02  1.39683779E-01
 -1.53286615E-03 -2.20878999E-03 -6.37193011E-03  2.48144222E-02 -6.22075193E-04
 -7.72512268E-03  1.46606629E-02  4.67148865E-04 -3.12306662E-04  1.30262742E-03
 -3.04520719E-03  1.01141285E-03  4.13053204E-03 -5.83593886E-03  7.41296594E-04
 -5.75552159E-03 -4.20151172E-03  6.98432284E-04 -3.36850227E-03 -1.46252800E-04
  1.07561933E-04 -3.88673459E-03  4.21587820E-03 -3.62077063E-03 -5.93226206E-04
  3.35918958E-04  2.62443676E-02  1.69432187E-03 -9.91767411E-04  1.10382364E-02
 -5.65899935E-04 -2.31037543E-04  1.37423723E-03  1.42518126E-04 -3.34961504E-04
 -4.86137951E-04 -3.37226725E-04  1.72768723E-02 -1.13571456E-04  1.81688508E-04
  1.34917904E-02 -8.62348007E-04 -6.36925507E-05  1.80482264E-05  3.77731287E-05
  3.82084479E-04  2.03901082E-03 -4.59658880E-03 -1.00137750E-02  6.01119433E-03
  2.01696086E-04  1.52446262E-02  5.58586125E-03 -3.65499989E-04  7.96214562E-03
 -4.55618686E-05 -1.90527927E-04  6.55229381E-04  1.77298953E-05  4.65931384E-04
 -2.34579070E-04  7.09007854E-04 -4.86494199E-04  1.17076762E-03  1.37512515E-02
  1.88945003E-03  1.11332344E-03  1.06734225E-02  2.39493296E-04 -2.48191075E-05
 -1.66377177E-05  1.33999651E-04  3.03283635E-04  6.74840935E-05  2.54247465E-04
 -6.96353533E-02  1.42692129E-01 -5.98996075E-03  2.31147856E-02  4.97575251E-02
  4.34122202E-01  4.17376493E-02  1.82987200E-02  1.75732347E-01 -7.93913911E-03
 -4.12558583E-03  2.36856106E-02  1.47811398E-03  1.05755350E-02  3.21066018E-03
  4.26692246E-01 -3.72332541E-04  1.30447705E-03 -1.41120893E-02 -1.44075980E-02
  8.63188775E-03  6.64004592E-02 -2.49535546E-03  3.34179853E-03  2.71980016E-02
 -2.06352364E-03 -4.68977924E-04  3.43280477E-03  2.97878338E-04  1.65798606E-03
  4.39766738E-04  5.68890016E-02  9.27080275E-03  2.70861876E-04 -7.40099404E-04
 -1.18807452E-02  3.35651191E-02  1.42745194E-03  7.54116488E-03  2.13511968E-02
  1.55926441E-03  7.17580533E-03  1.37994152E-03 -3.63998146E-04  1.64533759E-04
 -1.53216623E-05  3.96947791E-04  9.31639011E-05  5.37290132E-03 -4.26001768E-04
  1.99662383E-03  2.14047608E-03 -4.12848043E-03 -1.49746261E-03  6.39336446E-04
  4.17593542E-02 -1.07185528E-02  6.78854081E-04  3.31512663E-02 -6.15289958E-03
  1.25778755E-04  1.25821158E-04 -4.86056724E-04  9.10866112E-04 -1.99407374E-04
  6.79368138E-04 -6.56929471E-03 -7.11040820E-04 -4.73559702E-05  2.42106909E-03
  1.83250932E-02 -3.54501534E-02 -1.84764936E-02  8.42183095E-04 -1.03372521E-02
 -4.44024328E-02 -3.07682529E-04 -5.72694541E-03 -1.49141203E-02  9.50833800E-04
  3.90955577E-04 -2.76354184E-03 -2.53403111E-04 -9.24921054E-04 -4.68654055E-04
 -5.32395243E-02 -6.24995227E-03 -5.70077817E-04  6.41190139E-04  7.51724447E-03
 -4.94727890E-02  1.05318599E-01  3.60922060E-02  3.60135258E-01 -3.70078319E-02
 -1.40328371E-01  1.95638235E-01 -1.48737801E-02 -3.17747683E-02  1.96666549E-02
 -1.95835494E-03 -7.72195356E-03 -1.70283965E-03 -2.38293367E-03 -6.44856087E-04
 -8.24879767E-02 -3.26999992E-02  2.11843612E-02 -7.46969675E-04  3.90003187E-03
  3.44570799E-01  1.20063029E-03 -1.65885920E-03 -1.56980835E-02  9.56046096E-02
 -1.01165176E-02 -3.97356349E-02  5.46917340E-02 -3.82426327E-03 -6.04566162E-03
  5.24169847E-03 -4.93326916E-04 -2.60896879E-03 -4.34576512E-04 -4.92808728E-04
 -2.60042679E-04 -3.67706596E-02 -9.29501297E-03  5.31795395E-03  1.75672697E-04
  4.06611386E-03  8.20288047E-02  2.14686617E-02  1.33978255E-02 -2.69987657E-02
 -2.35657590E-02 -2.89466495E-02  6.83979644E-03  2.63961968E-02 -1.23408335E-02
  3.66834972E-03  1.12394770E-02 -1.92602657E-03  2.53637007E-05  1.11051351E-03
  2.58260505E-04  7.20518880E-04  1.42895316E-04  1.15704927E-02  4.44927235E-03
 -1.79246065E-03  2.17967894E-04  2.03330570E-05 -3.94879852E-02 -8.50898960E-03
  5.33057297E-03 -1.52222989E-03  3.05398332E-03  1.09537607E-03  7.74315908E-03
  3.57450644E-02 -4.04313281E-03  4.80122012E-03  2.82562156E-02 -2.94959293E-03
  3.38834899E-04 -3.27902053E-06 -1.07527798E-04  7.67924174E-04 -4.06077256E-05
  6.28464634E-04  1.33138384E-03 -1.88891059E-04  4.74692958E-04  1.90648260E-03
 -5.22215525E-04  5.10122204E-03  1.07946288E-03 -4.98365675E-04  1.76225430E-03
 -6.45690871E-03  1.28964981E-02 -2.09072923E-03  3.40747798E-02 -4.48019167E-03
  1.50656620E-02  2.08688756E-02 -3.49769065E-03  9.24277593E-03  1.27907381E-03
 -4.43392684E-04  7.20272811E-04 -1.49523929E-04  4.95573689E-04  5.67468157E-05
  1.69147202E-02  5.47042872E-04  2.20249613E-03 -6.46422513E-04 -2.43405570E-03
  2.42555770E-02  5.05867217E-03 -2.47892487E-03  2.99713199E-04  3.04685287E-03
Dipole Moment                              R   N=           3
  6.46475310E-01  3.32969714E-03  3.41075744E-01
Mulliken Charges                           R   N=           3
 -2.84153391E-01  1.03361256E-01  1.80792134E-01
