H2O_q+0 ub3lyp/cc-pvtz sp-stable                                        
Stability UB3LYP                                                      CC-pVTZ             
Number of atoms                            I                3
Info1-9                                    I   N=           9
          15          11           0           0           0         111
           7          18        -502
Charge                                     I                0
Multiplicity                               I                1
Number of electrons                        I               10
Number of alpha electrons                  I                5
Number of beta electrons                   I                5
Number of basis functions                  I               58
Number of independent functions            I               58
Number of point charges in /Mol/           I                0
Number of translation vectors              I                0
Atomic numbers                             I   N=           3
           8           1           1
Nuclear charges                            R   N=           3
  8.00000000E+00  1.00000000E+00  1.00000000E+00
Current cartesian coordinates              R   N=           9
  1.08659253E-02  8.05023333E-03 -5.68807566E-03  5.21337646E-01  1.67452412E+00
  4.76040910E-01  1.13869228E+00 -4.45559628E-01 -1.34435117E+00
Force Field                                I                0
Int Atom Types                             I   N=           3
           0           0           0
MM charges                                 R   N=           3
  0.00000000E+00  0.00000000E+00  0.00000000E+00
Integer atomic weights                     I   N=           3
          16           1           1
Real atomic weights                        R   N=           3
  1.59949146E+01  1.00782504E+00  1.00782504E+00
Atom fragment info                         I   N=           3
           0           0           0
Atom residue num                           I   N=           3
           0           0           0
Nuclear spins                              I   N=           3
           0           1           1
Nuclear ZEff                               R   N=           3
 -5.60000000E+00 -1.00000000E+00 -1.00000000E+00
Nuclear QMom                               R   N=           3
  0.00000000E+00  0.00000000E+00  0.00000000E+00
Nuclear GFac                               R   N=           3
  0.00000000E+00  2.79284600E+00  2.79284600E+00
MicOpt                                     I   N=           3
          -1          -1          -1
Number of contracted shells                I               22
Number of primitive shells                 I               39
Pure/Cartesian d shells                    I                0
Pure/Cartesian f shells                    I                0
Highest angular momentum                   I                3
Largest degree of contraction              I                7
Shell types                                I   N=          22
           0           0           0           0           1           1
           1          -2          -2          -3           0           0
           0           1           1          -2           0           0
           0           1           1          -2
Number of primitives per shell             I   N=          22
           7           6           1           1           3           1
           1           1           1           1           3           1
           1           1           1           1           3           1
           1           1           1           1
Shell to atom map                          I   N=          22
           1           1           1           1           1           1
           1           1           1           1           2           2
           2           2           2           2           3           3
           3           3           3           3
Primitive exponents                        R   N=          39
  1.53300000E+04  2.29900000E+03  5.22400000E+02  1.47300000E+02  4.75500000E+01
  1.67600000E+01  6.20700000E+00  5.22400000E+02  1.47300000E+02  4.75500000E+01
  1.67600000E+01  6.20700000E+00  6.88200000E-01  1.75200000E+00  2.38400000E-01
  3.44600000E+01  7.74900000E+00  2.28000000E+00  7.15600000E-01  2.14000000E-01
  2.31400000E+00  6.45000000E-01  1.42800000E+00  3.38700000E+01  5.09500000E+00
  1.15900000E+00  3.25800000E-01  1.02700000E-01  1.40700000E+00  3.88000000E-01
  1.05700000E+00  3.38700000E+01  5.09500000E+00  1.15900000E+00  3.25800000E-01
  1.02700000E-01  1.40700000E+00  3.88000000E-01  1.05700000E+00
Contraction coefficients                   R   N=          39
  5.19808943E-04  4.02025621E-03  2.07128267E-02  8.10105536E-02  2.35962985E-01
  4.42653446E-01  3.57064423E-01 -4.42115008E-05 -1.22591041E-03 -1.05517725E-02
 -6.74452633E-02 -1.71198607E-01  1.07329856E+00  1.00000000E+00  1.00000000E+00
  4.11634896E-02  2.57762836E-01  8.02419274E-01  1.00000000E+00  1.00000000E+00
  1.00000000E+00  1.00000000E+00  1.00000000E+00  2.54948632E-02  1.90362766E-01
  8.52162022E-01  1.00000000E+00  1.00000000E+00  1.00000000E+00  1.00000000E+00
  1.00000000E+00  2.54948632E-02  1.90362766E-01  8.52162022E-01  1.00000000E+00
  1.00000000E+00  1.00000000E+00  1.00000000E+00  1.00000000E+00
Coordinates of each shell                  R   N=          66
  1.08659253E-02  8.05023333E-03 -5.68807566E-03  1.08659253E-02  8.05023333E-03
 -5.68807566E-03  1.08659253E-02  8.05023333E-03 -5.68807566E-03  1.08659253E-02
  8.05023333E-03 -5.68807566E-03  1.08659253E-02  8.05023333E-03 -5.68807566E-03
  1.08659253E-02  8.05023333E-03 -5.68807566E-03  1.08659253E-02  8.05023333E-03
 -5.68807566E-03  1.08659253E-02  8.05023333E-03 -5.68807566E-03  1.08659253E-02
  8.05023333E-03 -5.68807566E-03  1.08659253E-02  8.05023333E-03 -5.68807566E-03
  5.21337646E-01  1.67452412E+00  4.76040910E-01  5.21337646E-01  1.67452412E+00
  4.76040910E-01  5.21337646E-01  1.67452412E+00  4.76040910E-01  5.21337646E-01
  1.67452412E+00  4.76040910E-01  5.21337646E-01  1.67452412E+00  4.76040910E-01
  5.21337646E-01  1.67452412E+00  4.76040910E-01  1.13869228E+00 -4.45559628E-01
 -1.34435117E+00  1.13869228E+00 -4.45559628E-01 -1.34435117E+00  1.13869228E+00
 -4.45559628E-01 -1.34435117E+00  1.13869228E+00 -4.45559628E-01 -1.34435117E+00
  1.13869228E+00 -4.45559628E-01 -1.34435117E+00  1.13869228E+00 -4.45559628E-01
 -1.34435117E+00
Constraint Structure                       R   N=           9
  1.08659253E-02  8.05023333E-03 -5.68807566E-03  5.21337646E-01  1.67452412E+00
  4.76040910E-01  1.13869228E+00 -4.45559628E-01 -1.34435117E+00
Num ILSW                                   I              100
ILSW                                       I   N=         100
           1           0           0           0           2           1
           0           0           0           0         402          -1
           5           0           0           0           0           0
           0           0           0           0           0           0
           1           1           0           0           0           0
           0           0      100000           0          -1           0
           0           0           0           0           0           0
           0           0           0           1           0           0
           0           0           1           0           0           0
           0           0           4          40           0           0
           0           0           5           0           0           0
           0           0           0           0           0           0
           0           0           0           0           0           0
           0           0           0           0           0           0
           0           0           0           0           0           0
           0           0           0           0           0           0
           0           0           0           0
Num RLSW                                   I               40
RLSW                                       R   N=          40
  8.00000000E-01  7.20000000E-01  1.00000000E+00  8.10000000E-01  2.00000000E-01
  0.00000000E+00  0.00000000E+00  1.00000000E+00  0.00000000E+00  0.00000000E+00
  0.00000000E+00  0.00000000E+00  1.00000000E+00  0.00000000E+00  0.00000000E+00
  0.00000000E+00  0.00000000E+00  1.00000000E+00  0.00000000E+00  0.00000000E+00
  0.00000000E+00  0.00000000E+00  1.00000000E+00  0.00000000E+00  0.00000000E+00
  0.00000000E+00  0.00000000E+00  1.00000000E+00  0.00000000E+00  0.00000000E+00
  0.00000000E+00  0.00000000E+00  1.00000000E+00  0.00000000E+00  0.00000000E+00
  0.00000000E+00  0.00000000E+00  0.00000000E+00  1.00000000E+00  1.00000000E+00
MxBond                                     I                2
NBond                                      I   N=           3
           2           1           1
IBond                                      I   N=           6
           2           3           1           0           1           0
RBond                                      R   N=           6
  1.00000000E+00  1.00000000E+00  1.00000000E+00  0.00000000E+00  1.00000000E+00
  0.00000000E+00
Virial Ratio                               R      2.004872755474188E+00
SCF Energy                                 R     -7.645980351270224E+01
Total Energy                               R     -7.645980351270224E+01
S**2                                       R     -3.552713678800501E-15
S**2 after annihilation                    R      1.065814103640147E-14
RMS Density                                R      4.051015778960590E-09
External E-field                           R   N=          35
  0.00000000E+00  0.00000000E+00  0.00000000E+00  0.00000000E+00  0.00000000E+00
  0.00000000E+00  0.00000000E+00  0.00000000E+00  0.00000000E+00  0.00000000E+00
  0.00000000E+00  0.00000000E+00  0.00000000E+00  0.00000000E+00  0.00000000E+00
  0.00000000E+00  0.00000000E+00  0.00000000E+00  0.00000000E+00  0.00000000E+00
  0.00000000E+00  0.00000000E+00  0.00000000E+00  0.00000000E+00  0.00000000E+00
  0.00000000E+00  0.00000000E+00  0.00000000E+00  0.00000000E+00  0.00000000E+00
  0.00000000E+00  0.00000000E+00  0.00000000E+00  0.00000000E+00  0.00000000E+00
IOpCl                                      I                1
IROHF                                      I                0
Alpha Orbital Energies                     R   N=          58
 -1.91204017E+01 -1.01020208E+00 -5.29526976E-01 -3.85675448E-01 -3.09871604E-01
  2.48704636E-02  9.72675507E-02  3.68527378E-01  4.16341586E-01  4.91817227E-01
  5.79735545E-01  6.19917388E-01  6.24603299E-01  6.77675866E-01  7.73847412E-01
  9.18930937E-01  1.00865531E+00  1.28810814E+00  1.31583563E+00  1.76415600E+00
  1.78898731E+00  1.80286105E+00  1.88990963E+00  1.95696705E+00  2.25115006E+00
  2.61063397E+00  3.05207292E+00  3.19102199E+00  3.26659352E+00  3.35449988E+00
  3.37693085E+00  3.52809813E+00  3.58015010E+00  3.64529766E+00  3.68681518E+00
  3.71413207E+00  3.78667487E+00  3.99815507E+00  4.03050187E+00  4.24460482E+00
  4.28346998E+00  4.51312218E+00  4.75153297E+00  4.82563390E+00  5.08801151E+00
  5.60563676E+00  6.11309590E+00  6.41191322E+00  6.41607497E+00  6.50675781E+00
  6.53628133E+00  6.59677396E+00  6.65740420E+00  6.78102246E+00  6.95702766E+00
  7.29985442E+00  7.76355199E+00  1.21858778E+01
Beta Orbital Energies                      R   N=          58
 -1.91204017E+01 -1.01020208E+00 -5.29526976E-01 -3.85675448E-01 -3.09871604E-01
  2.48704636E-02  9.72675507E-02  3.68527378E-01  4.16341586E-01  4.91817227E-01
  5.79735545E-01  6.19917388E-01  6.24603299E-01  6.77675866E-01  7.73847412E-01
  9.18930937E-01  1.00865531E+00  1.28810814E+00  1.31583563E+00  1.76415600E+00
  1.78898731E+00  1.80286105E+00  1.88990963E+00  1.95696705E+00  2.25115006E+00
  2.61063397E+00  3.05207292E+00  3.19102199E+00  3.26659352E+00  3.35449988E+00
  3.37693085E+00  3.52809813E+00  3.58015010E+00  3.64529766E+00  3.68681518E+00
  3.71413207E+00  3.78667487E+00  3.99815507E+00  4.03050187E+00  4.24460482E+00
  4.28346998E+00  4.51312218E+00  4.75153297E+00  4.82563390E+00  5.08801151E+00
  5.60563676E+00  6.11309590E+00  6.41191322E+00  6.41607497E+00  6.50675781E+00
  6.53628133E+00  6.59677396E+00  6.65740420E+00  6.78102246E+00  6.95702766E+00
  7.29985442E+00  7.76355199E+00  1.21858778E+01
Alpha MO coefficients                      R   N=        3364
  9.73229668E-01 -9.37915641E-03  5.11162594E-02  5.48154946E-03  1.16383109E-03
  8.61605031E-04 -6.08760164E-04  2.52603344E-04  1.86998389E-04 -1.32131533E-04
  6.81345324E-04  5.04407434E-04 -3.56390188E-04 -2.54238254E-05 -2.07527454E-04
  2.17884815E-04 -1.11679659E-04  6.41059362E-05  3.33471288E-05 -1.79153259E-05
  1.66824264E-04 -8.98496269E-05 -8.59464021E-05 -4.11746020E-05  4.27039022E-05
 -3.68811505E-05 -4.64991568E-05  8.12174076E-05 -1.81938529E-05 -7.62311958E-05
  4.07633914E-04 -2.01057608E-03 -3.75674005E-04  1.09222418E-04  2.08452425E-04
  1.70093497E-05  3.29671866E-04  9.88596155E-04  2.60182501E-04  3.89073885E-04
 -1.65769974E-04 -3.09140419E-04  5.89587355E-04 -4.59049693E-04  4.07633451E-04
 -2.01060190E-03 -3.75676254E-04  1.70356905E-04 -1.47893080E-06 -1.63250018E-04
  6.86389750E-04 -2.36396018E-04 -7.91654136E-04 -3.01520749E-04  7.31717873E-04
 -2.09177227E-04 -3.26147150E-04  2.37329371E-04 -2.04964216E-01  4.65790135E-01
  1.41070763E-01  2.63574119E-01  4.92015081E-02  3.64246780E-02 -2.57356097E-02
  5.84160306E-02  4.32464141E-02 -3.05553654E-02  1.17457836E-02  8.69562668E-03
 -6.14379069E-03 -5.39267874E-04 -3.03681712E-03  2.49199347E-03 -1.25685577E-03
  1.36851516E-03 -1.17654310E-03 -5.83277838E-03  4.20014389E-03 -2.09638112E-03
  2.99081913E-03 -9.40092553E-05  6.16214221E-04 -8.09537344E-04 -1.14415379E-03
  5.67427351E-04 -6.53173452E-04 -5.15564783E-04  9.65789076E-02  8.10635120E-02
  1.08944444E-02 -3.12253392E-03 -1.25152699E-02 -4.29566927E-03 -1.62976336E-03
 -1.20075884E-02 -5.42364147E-03 -1.24030452E-03  3.12810946E-04  1.88640691E-03
 -2.46864619E-03  1.32178915E-03  9.65791753E-02  8.10637554E-02  1.08944703E-02
 -8.01115683E-03  4.27282693E-03  1.01193243E-02 -6.80462786E-03  5.76349454E-03
  9.83538987E-03  1.13935917E-03 -2.77977236E-03  1.54194993E-03  6.86811238E-04
 -1.07780838E-03 -8.92220980E-08  2.83793353E-07  7.12112310E-08  4.05722061E-07
 -6.43515029E-02  2.20991446E-01  1.89752652E-01 -7.02550557E-02  2.41265170E-01
  2.07160496E-01 -3.30990619E-02  1.13666473E-01  9.75988684E-02 -4.88388881E-03
  6.34702487E-03  7.06959669E-04 -6.47608937E-03  4.92480262E-03 -6.37852967E-03
  8.28943285E-03  9.23315090E-04 -8.45799839E-03  6.43196370E-03 -1.15063677E-03
 -1.11531697E-03  9.07925526E-04 -1.27217382E-03 -1.04754711E-03 -9.33001499E-05
 -7.60352472E-04  1.50340039E-01  2.12916774E-01  7.82819904E-02 -7.52395072E-03
 -1.39819134E-02 -9.52289363E-04 -1.24448350E-02 -2.20368176E-02 -9.41944624E-04
 -3.33165611E-03  6.12908811E-04  1.96034454E-03 -4.28093263E-03  4.40881440E-03
 -1.50340125E-01 -2.12916770E-01 -7.82819028E-02  1.15540979E-02  1.41906186E-04
 -1.09313420E-02  1.85886967E-02  9.37909048E-04 -1.71744529E-02 -1.96798474E-03
  6.27442068E-03 -1.19320775E-03 -2.74644378E-03  9.35223404E-04 -7.79494138E-02
  1.85512062E-01  6.00559219E-02  2.77165381E-01 -2.39094387E-01 -1.77006126E-01
  1.25061659E-01 -2.68126783E-01 -1.98499403E-01  1.40247433E-01 -2.16032896E-01
 -1.59933264E-01  1.12999010E-01  1.60627462E-03  3.75285069E-03  8.34597500E-04
 -5.67917278E-04 -4.11030323E-03  5.18465054E-03  1.09619329E-02  4.49001745E-03
 -2.77096334E-03 -1.32744084E-02 -4.38542630E-04 -6.65210515E-04  1.17336246E-03
  1.74603107E-03  4.02006354E-05  1.12689600E-03 -7.45040196E-05 -8.74856844E-02
 -1.20019184E-01 -3.12427964E-02 -3.09456228E-03  6.02265271E-03  6.44940550E-03
 -1.85225623E-02 -1.84260943E-03  1.65857317E-02 -3.33235030E-04  3.94621065E-04
 -3.23975412E-03  1.97907355E-03  1.16730984E-03 -8.74856087E-02 -1.20019026E-01
 -3.12425719E-02  8.88525129E-04 -7.65584203E-03 -5.29551649E-03 -1.28356033E-02
 -2.13724462E-02 -1.83401963E-04 -7.23418220E-04  9.01697680E-04 -3.18327840E-03
  1.46168984E-03  1.56076494E-03  5.35509245E-09  1.59972529E-09 -6.36383356E-09
  1.47748136E-07  2.35271638E-01 -1.43414561E-01  2.46813267E-01  2.68210927E-01
 -1.63493333E-01  2.81368420E-01  2.46333833E-01 -1.50157654E-01  2.58418044E-01
 -2.43049663E-03  1.34511511E-03  2.80145851E-03  3.71133255E-03  3.34356526E-04
 -8.41698278E-03  4.65822240E-03  9.70167589E-03  1.28526188E-02  1.15792837E-03
  1.35138932E-03 -1.51835623E-03  1.82221579E-03 -1.13954379E-03  2.44387702E-03
 -5.25682405E-04  9.62179413E-04  8.14768206E-09 -1.07326081E-07  4.13591491E-09
  6.64595244E-03 -4.05116900E-03  6.97197921E-03  2.15705680E-02 -1.31487310E-02
  2.26287602E-02 -1.84605721E-03 -1.75497193E-03 -2.42726014E-03 -2.47468317E-03
 -2.47470481E-03  1.56857032E-09 -1.04982264E-07  2.53435837E-08  6.64596964E-03
 -4.05118418E-03  6.97199209E-03  2.15705950E-02 -1.31487913E-02  2.26287344E-02
  4.26998768E-03  4.13494574E-04 -3.66635475E-04 -1.22661991E-03  2.14124834E-03
 -7.90986757E-02  1.50586546E-01  5.85242406E-02  1.24990025E+00  8.53720673E-02
  6.32028651E-02 -4.46548563E-02  1.50239558E-01  1.11225384E-01 -7.85847464E-02
  2.84241349E-01  2.10429837E-01 -1.48676128E-01 -3.55407474E-04  5.78153009E-04
 -2.38219316E-03  1.27313140E-03  9.18518392E-04 -3.70409131E-03 -2.25472425E-02
  1.97507181E-02 -1.00083670E-02  9.38909089E-03 -9.86324639E-04  2.25058886E-03
 -2.60011064E-03 -3.57047053E-03  2.84958296E-03 -1.88337687E-03 -2.63435182E-03
 -3.94189843E-02 -2.68929045E-01 -8.17360319E-01 -6.75395324E-04 -8.69973054E-03
 -4.41130110E-03  2.84010658E-02  9.38491782E-02  2.74595626E-02  5.35340297E-03
 -1.36749458E-03 -2.97144608E-03  6.87353603E-03 -6.98273412E-03 -3.94187294E-02
 -2.68929108E-01 -8.17358346E-01 -4.60387689E-03  4.79137001E-03  7.17268437E-03
  6.32912461E-02 -2.59678919E-02 -7.54205958E-02 -3.29429521E-03  9.87093395E-03
 -1.71966606E-03 -4.59340443E-03  1.73740991E-03  8.62887792E-08 -1.57017346E-07
 -9.10076263E-08 -2.47264873E-06 -4.11364339E-02  1.41268156E-01  1.21298766E-01
 -5.39904280E-02  1.85410156E-01  1.59201037E-01 -1.59115892E-01  5.46425093E-01
  4.69183777E-01  1.45401997E-03 -1.88961545E-03 -2.10477014E-04  1.92804447E-03
 -1.46620009E-03 -1.78797731E-02  2.32362682E-02  2.58812708E-03 -2.37087401E-02
  1.80295537E-02 -1.44606407E-03 -1.80570267E-03  6.07908438E-04 -9.28864494E-04
 -1.04661657E-03 -8.42761966E-04 -8.71925292E-04 -3.29736629E-02 -2.07014213E-01
 -1.54532897E+00 -5.99898765E-03 -1.39057137E-02 -2.36166577E-03  2.75393617E-02
  8.63081688E-02  2.38991135E-02  2.55178175E-03 -9.97733479E-04 -5.34946003E-03
  6.27069977E-03 -2.21976317E-03  3.29735416E-02  2.07014545E-01  1.54533183E+00
  1.05335297E-02 -1.66640723E-03 -1.10092438E-02 -5.91223396E-02  2.21512411E-02
  6.92289161E-02  2.98191087E-03 -6.19376112E-03  4.54843650E-03  1.06703657E-03
 -3.36029053E-03  2.32292249E-07 -6.27704520E-07 -2.15895957E-07  4.79531803E-06
  2.66768909E-02 -9.16146708E-02 -7.86634980E-02  5.61228591E-02 -1.92735477E-01
 -1.65490273E-01  2.02421091E-01 -6.95138773E-01 -5.96876144E-01 -1.03821082E-02
  1.34924115E-02  1.50290458E-03 -1.37668253E-02  1.04690700E-02  3.43932674E-02
 -4.46972577E-02 -4.97832460E-03  4.56057860E-02 -3.46813246E-02  6.35153662E-03
  1.04803994E-02  6.93677391E-04 -1.47213744E-04  2.89416938E-03  8.27926767E-03
  3.30195319E-03  1.29570742E-01  1.38237637E+00 -8.56397711E-01 -7.55030290E-03
 -3.96839524E-02 -1.58617265E-02  4.86650279E-02  2.76730295E-02 -3.03095016E-02
 -8.10312699E-03  8.54094680E-03  1.02781469E-02 -1.67612074E-02  6.66778239E-03
 -1.29569600E-01 -1.38237085E+00  8.56389388E-01  2.38850348E-02 -1.64118014E-02
 -3.23044275E-02 -4.46607448E-02 -4.14208014E-02  1.85040647E-02 -9.99713693E-03
  1.49818090E-02 -7.65814880E-03 -7.23985401E-03  1.15841468E-02  5.15419518E-02
 -1.77394803E-01 -4.24657136E-02 -1.05346495E-01 -1.04487033E-01 -7.73533316E-02
  5.46536886E-02 -1.36658935E-01 -1.01169969E-01  7.14822235E-02 -2.07101881E-01
 -1.53314731E-01  1.08331094E-01  1.61460441E-03 -5.21548503E-03  1.48608434E-02
 -7.89247121E-03 -4.18931333E-03 -5.41717247E-03 -1.68147135E-02  3.67465741E-03
 -1.47360338E-03  1.38348193E-02  2.30185556E-03 -3.37348468E-03  3.44065426E-03
  4.57268305E-03 -5.26666271E-03  2.17974411E-03  4.91092836E-03  1.20103577E-01
  1.09980068E+00 -6.98113192E-01 -5.28034575E-03 -2.00779105E-02 -6.63315673E-03
 -6.05854835E-02  2.06931966E-01  1.77993395E-01 -3.66332313E-03 -6.01572587E-03
 -3.79835952E-03  1.84877595E-03  8.87562877E-03  1.20104709E-01  1.09981648E+00
 -6.98117650E-01 -1.30272268E-02  6.52491398E-03  1.62094346E-02  6.00455676E-02
 -2.07331173E-01 -1.77710497E-01 -3.00901059E-03 -6.86610944E-03 -3.89295584E-03
  2.71632796E-03  8.21585370E-03 -7.44745495E-03  1.05102906E-01 -2.62598864E-02
  4.09183555E+00 -1.95092164E-01 -1.44430096E-01  1.02045759E-01 -1.18239980E-01
 -8.75355420E-02  6.18466373E-02  1.81579008E+00  1.34426179E+00 -9.49774911E-01
  3.72117015E-03  1.81479880E-02 -1.28162636E-02  6.38608150E-03 -9.46129795E-03
 -2.53999331E-02 -1.69185529E-01  1.58171944E-01 -8.05017359E-02  6.42898485E-02
 -4.46860412E-03  1.06797549E-02 -1.24558149E-02 -1.71434085E-02  1.32661627E-02
 -9.10267811E-03 -1.22533045E-02  2.11959509E-02 -2.13048425E+00 -3.92017378E-01
  4.89408609E-03  2.80822565E-02  1.16524020E-02  2.81968301E-01  8.71854553E-01
  2.37821303E-01  2.62754372E-02 -6.10234258E-03 -3.51763768E-02  4.86194251E-02
 -2.93902995E-02  2.11959836E-02 -2.13048772E+00 -3.92020699E-01  1.66126737E-02
 -1.21605209E-02 -2.29018741E-02  5.99667194E-01 -2.19164579E-01 -6.98974142E-01
 -2.23678718E-02  5.71137718E-02 -2.81351290E-02 -1.58821044E-02  1.96604545E-02
  5.43965432E-10 -2.16949157E-08 -6.28353113E-09  2.33877755E-07 -1.86701834E-01
  1.13807926E-01 -1.95860871E-01 -4.73130200E-01  2.88406246E-01 -4.96340583E-01
  6.98367021E-01 -4.25703424E-01  7.32626279E-01  3.31971650E-03 -1.83721177E-03
 -3.82635009E-03 -5.06912041E-03 -4.56675139E-04 -1.36211249E-02  7.53830459E-03
  1.56999963E-02  2.07991778E-02  1.87384084E-03  1.67207802E-03 -2.00839747E-03
  2.21499053E-03 -1.48661905E-03  3.14165439E-03 -5.64666785E-04  1.28885404E-03
  2.50296904E-08 -2.53580339E-07  4.91027174E-08 -7.28503975E-03  4.44076110E-03
 -7.64244778E-03  3.75983170E-02 -2.29189356E-02  3.94433764E-02  5.88260621E-03
  7.05162563E-03  1.01285583E-02  1.06678585E-02  9.31990016E-03  2.66697688E-08
 -1.60364404E-07  1.31155609E-08 -7.28497569E-03  4.44072230E-03 -7.64236669E-03
  3.75970196E-02 -2.29184715E-02  3.94415717E-02 -1.68209614E-02 -9.97990052E-04
  2.47927344E-03  6.03487936E-03 -7.81510494E-03 -1.53004217E-07 -2.47474462E-07
 -1.42700522E-07 -2.77629043E-06  6.34516228E-02 -2.17901826E-01 -1.87099590E-01
  8.69422384E-03 -2.98589543E-02 -2.56376517E-02 -6.29971116E-01  2.16341000E+00
  1.85759398E+00  1.06582069E-02 -1.38511943E-02 -1.54284050E-03  1.41329019E-02
 -1.07474998E-02 -1.75162352E-01  2.27638023E-01  2.53554142E-02 -2.32267108E-01
  1.76629747E-01 -1.21174751E-02 -2.18931588E-02 -3.82880490E-03  3.42911720E-03
 -4.25315106E-03 -1.92046529E-02 -5.90640201E-03  4.04391938E-02 -1.55321439E+00
 -1.49334492E+00  1.59944442E-02  5.40401996E-02  1.61543675E-02  2.85935345E-01
  9.35862441E-01  2.71232694E-01  3.70843990E-02 -1.56865475E-02 -4.39745536E-02
  6.67862070E-02 -4.01939044E-02 -4.04388835E-02  1.55321486E+00  1.49334645E+00
 -3.62123400E-02  1.53906167E-02  4.34619113E-02 -6.32892904E-01  2.55637050E-01
  7.51838874E-01  3.32622148E-02 -7.57346359E-02  3.37915669E-02  2.64941495E-02
 -3.07420529E-02  3.00299318E-02 -1.37272701E-01 -2.67136884E-02 -1.07836151E+00
 -2.65952318E-02 -1.96888329E-02  1.39108879E-02 -1.05682838E-01 -7.82387189E-02
  5.52785819E-02 -1.14751718E+00 -8.49527955E-01  6.00225721E-01 -9.66194948E-03
 -1.40842697E-02 -1.82652203E-02  1.03321228E-02  2.47785853E-02  3.12678256E-02
  3.81142729E-02  7.07564964E-02 -3.95182786E-02 -8.02361114E-02 -6.08131190E-03
  4.55177938E-04  2.73566213E-03  4.84246371E-03  7.68586977E-03  4.21298759E-03
 -7.40616135E-03 -2.46514828E-03  1.15276654E+00 -2.20968870E-01 -2.54437093E-02
 -3.42812662E-03  2.22619034E-02  5.78123479E-01 -1.35589879E-01 -6.29875145E-01
  1.82297111E-02 -1.07918877E-02  3.93213766E-02 -1.07937696E-02 -3.37194238E-02
 -2.46508095E-03  1.15276931E+00 -2.20969295E-01 -1.80615561E-02 -2.87794437E-02
  4.94202138E-04  3.08107425E-01  7.91682968E-01  1.66319990E-01  1.36482595E-03
  1.11254892E-02  4.17627546E-02 -3.31568889E-02 -1.67133004E-02 -3.68957185E-09
  1.60791088E-08  5.09060914E-09 -3.65214406E-08  2.43996895E-07 -1.50036685E-07
  2.74099838E-07  8.54175866E-07 -5.34806238E-07  9.62710376E-07 -1.27941328E-06
  8.25035877E-07 -1.51807628E-06  1.94156064E-02  6.88387574E-03  6.54154228E-03
  3.96206192E-03  1.46535058E-02 -5.71740024E-03 -2.02707153E-03 -1.92623804E-03
 -1.16661665E-03 -4.31503139E-03  8.98604496E-03 -4.76068634E-03 -3.05143380E-03
  1.24099089E-05 -1.57218703E-03  3.33736300E-03 -8.52328777E-03 -4.38506768E-09
 -3.31091440E-08  8.06389397E-08 -3.04246390E-02  1.85459490E-02 -3.19171731E-02
  5.26989766E-01 -3.21237249E-01  5.52842173E-01  1.69962269E-03 -9.37880121E-03
 -1.58018702E-02 -1.86824732E-02 -8.52618574E-03  9.46235456E-10 -2.88687652E-08
 -2.83649663E-08  3.04245576E-02 -1.85459025E-02  3.19170833E-02 -5.26989024E-01
  3.21236755E-01 -5.52841285E-01 -2.02862074E-02  2.78888191E-03  9.53968722E-03
  1.48896407E-02 -5.50160514E-03  2.06797118E-08 -1.46414252E-07 -5.25142321E-08
  9.65497652E-07  8.61738467E-03 -5.25288120E-03  9.04011408E-03  1.49651129E-02
 -9.12206556E-03  1.56990509E-02  7.47360077E-01 -4.55568433E-01  7.84023044E-01
  1.04914429E-02 -5.80628069E-03 -1.20927101E-02 -1.60202460E-02 -1.44326849E-03
  1.06284762E-02 -5.88237107E-03 -1.22509341E-02 -1.62299237E-02 -1.46232482E-03
  6.05278532E-03 -5.59138072E-03  8.53072824E-03 -4.38933009E-03  9.84729081E-03
 -3.15370821E-03  3.39264510E-03  2.21628444E-08 -2.94202761E-07 -1.32596986E-07
  3.82694053E-02 -2.33278612E-02  4.01467706E-02 -6.24659302E-01  3.80773929E-01
 -6.55303065E-01  2.84652027E-02  1.11877952E-02  1.13874814E-02  7.89708455E-03
  2.25598939E-02  3.26595669E-08 -2.40453173E-07 -1.94378921E-07  3.82694442E-02
 -2.33279090E-02  4.01467784E-02 -6.24660705E-01  3.80774640E-01 -6.55304734E-01
 -3.08781370E-02 -9.85247515E-03 -8.60642667E-03 -4.21273372E-03 -2.22280676E-02
  7.12915946E-02 -8.21290776E-01 -2.93228606E-01  7.03248872E+00  3.66789867E-02
  2.71539871E-02 -1.91855170E-02  7.24977053E-01  5.36711227E-01 -3.79211040E-01
  1.31002337E+00  9.69831350E-01 -6.85228566E-01  5.31955384E-04  6.71941139E-03
 -8.26822309E-03  4.27365950E-03 -1.32592229E-03  1.71561705E-03 -1.33482949E-01
  2.15396086E-01 -1.12611955E-01 -5.27359248E-03 -1.51670375E-02  2.87860540E-02
 -3.18416405E-02 -4.32538438E-02  3.95315960E-02 -2.20962817E-02 -3.66761480E-02
  3.02374987E-02 -2.89380030E+00 -6.51256716E-01  4.07041135E-02  1.01688344E-01
  2.02868485E-02  2.77946851E-01  1.23009283E+00  4.49814839E-01  7.61370859E-02
 -7.92133743E-03 -6.88577880E-02  1.13456123E-01 -9.70963846E-02  3.02371653E-02
 -2.89381336E+00 -6.51258844E-01  7.49865204E-02 -1.60410095E-02 -8.08008359E-02
  7.68709171E-01 -4.55236226E-01 -9.97284002E-01 -4.95705516E-02  1.55446511E-01
 -5.06614063E-02 -5.32334317E-02  2.96643124E-02  6.53197354E-08 -1.26556876E-06
 -4.16912044E-07  6.29542839E-06 -5.20839451E-03  1.78867462E-02  1.53581930E-02
 -3.72556661E-02  1.27945504E-01  1.09858144E-01 -3.76221002E-01  1.29200108E+00
  1.10936464E+00  1.39004468E-03 -1.80645089E-03 -2.01188786E-04  1.84318575E-03
 -1.40170580E-03 -2.96605073E-02  3.85461412E-02  4.29345397E-03 -3.93300892E-02
  2.99090580E-02 -4.43458792E-03 -4.21981350E-03  3.60286160E-03 -5.03338673E-03
 -4.08974877E-03 -2.18443632E-04 -2.94671783E-03  3.93609755E-03 -9.66589153E-01
 -1.21717959E-01 -4.67914480E-02  1.65829118E-02  5.42391103E-02  9.16679653E-01
  1.64065802E-01 -7.78480429E-01  9.93262237E-03  1.87347595E-03  5.19909009E-04
  6.88687666E-03 -1.61348308E-02 -3.93593045E-03  9.66584331E-01  1.21716751E-01
  2.22501634E-02  6.76955654E-02  1.81258390E-02 -6.70146155E-01 -1.01069380E+00
  5.15295178E-02  2.03613665E-03 -1.74277443E-02 -2.25274709E-03  8.98400912E-03
  4.06583943E-03 -7.69666514E-07  1.58025839E-05  4.65739022E-06  4.75525441E-05
 -4.24032782E-02  1.45630716E-01  1.25041311E-01 -2.40908940E-01  8.27354173E-01
  7.10390018E-01 -1.98721746E-01  6.82463768E-01  5.85984814E-01  2.25749914E-03
 -2.93365740E-03 -3.27026092E-04  2.99359617E-03 -2.27640599E-03  3.04083645E-02
 -3.95159739E-02 -4.40474846E-03  4.03233279E-02 -3.06632399E-02  1.55516325E-03
  3.59647873E-03  1.53047363E-03 -1.74498548E-03  1.95442875E-05  3.87839490E-03
  5.95325284E-04 -1.56026313E-01 -1.30371391E+00 -8.80400231E-01 -2.12571310E-02
 -7.01067418E-02 -2.04734857E-02  4.61760740E-01  1.65928396E+00  5.23984301E-01
  3.37099427E-02 -2.13802284E-02 -4.39418059E-02  6.59524217E-02 -3.28372388E-02
  1.56021468E-01  1.30367375E+00  8.80385463E-01  4.73022852E-02 -1.93468443E-02
 -5.63320787E-02 -1.09291216E+00  5.08288517E-01  1.33715345E+00  3.49950109E-02
 -6.79074921E-02  3.39965747E-02  2.51509999E-02 -3.64433414E-02 -3.42261504E-02
  8.27250306E-01  2.58036535E-01  2.17309259E+00  1.39543676E-01  1.03302960E-01
 -7.29925133E-02  4.36697383E-01  3.23274751E-01 -2.28432621E-01  2.62682711E-01
  1.94452652E-01 -1.37409344E-01 -1.24835665E-04  6.55663794E-03 -1.07488267E-02
  5.62279990E-03  3.63373942E-04  4.39861729E-03  1.25875680E-01 -1.78057962E-01
  9.26113172E-02 -1.05143585E-02  8.25121677E-03 -1.73733230E-02  1.97176812E-02
  2.69587006E-02 -2.27676258E-02  1.40404123E-02  2.10804715E-02 -1.21903159E-01
 -9.42523501E-01 -3.40340176E-01 -4.11502926E-02 -1.32946895E-01 -3.80247944E-02