n2 at hfs/sto-3g level                                                  
SP        RHFS                                                        STO-3G              
Number of atoms                            I                2
Charge                                     I                0
Multiplicity                               I                1
Number of electrons                        I               14
Number of alpha electrons                  I                7
Number of beta electrons                   I                7
Number of basis functions                  I               10
Number of independent functions            I               10
Atomic numbers                             I   N=           2
           7           7
Nuclear charges                            R   N=           2
  7.00000000E+00  7.00000000E+00
Current cartesian coordinates              R   N=           6
  0.00000000E+00  0.00000000E+00  1.05068773E+00  1.28672137E-16  0.00000000E+00
 -1.05068773E+00
Number of contracted shells                I                4
Number of primitive shells                 I               12
Shell types                                I   N=           4
           0          -1           0          -1
Number of primitives per shell             I   N=           4
           3           3           3           3
Shell to atom map                          I   N=           4
           1           1           2           2
Primitive exponents                        R   N=          12
  9.91061690E+01  1.80523124E+01  4.88566024E+00  3.78045588E+00  8.78496645E-01
  2.85714374E-01  9.91061690E+01  1.80523124E+01  4.88566024E+00  3.78045588E+00
  8.78496645E-01  2.85714374E-01
Contraction coefficients                   R   N=          12
  1.54328967E-01  5.35328142E-01  4.44634542E-01 -9.99672292E-02  3.99512826E-01
  7.00115469E-01  1.54328967E-01  5.35328142E-01  4.44634542E-01 -9.99672292E-02
  3.99512826E-01  7.00115469E-01
P(S=P) Contraction coefficients            R   N=          12
  0.00000000E+00  0.00000000E+00  0.00000000E+00  1.55916275E-01  6.07683719E-01
  3.91957393E-01  0.00000000E+00  0.00000000E+00  0.00000000E+00  1.55916275E-01
  6.07683719E-01  3.91957393E-01
Coordinates of each shell                  R   N=          12
  0.00000000E+00  0.00000000E+00  1.05068773E+00  0.00000000E+00  0.00000000E+00
  1.05068773E+00  1.28672137E-16  0.00000000E+00 -1.05068773E+00  1.28672137E-16
  0.00000000E+00 -1.05068773E+00
Constraint Structure                       R   N=           6
  0.00000000E+00  0.00000000E+00  1.05068773E+00  1.28672137E-16  0.00000000E+00
 -1.05068773E+00
Virial Ratio                               R      2.000406216814944E+00
SCF Energy                                 R     -1.062052135966929E+02
Total Energy                               R     -1.062052135966929E+02
Alpha Orbital Energies                     R   N=          10
 -1.37107053E+01 -1.37098006E+01 -9.60673085E-01 -3.57928483E-01 -3.16017655E-01
 -3.16017655E-01 -2.12998316E-01  6.84030479E-02  6.84030479E-02  7.50192517E-01
Alpha MO coefficients                      R   N=         100
  7.00931970E-01  3.78412786E-02  0.00000000E+00  0.00000000E+00 -1.42205134E-02
 -7.00931970E-01 -3.78412786E-02  0.00000000E+00  0.00000000E+00 -1.42205134E-02
  7.01823161E-01  1.70961539E-02  0.00000000E+00  0.00000000E+00 -1.52312414E-03
  7.01823161E-01  1.70961539E-02  0.00000000E+00  0.00000000E+00  1.52312414E-03
 -1.75453572E-01  4.72591556E-01  0.00000000E+00  0.00000000E+00 -2.65699163E-01
 -1.75453572E-01  4.72591556E-01  0.00000000E+00  0.00000000E+00  2.65699163E-01
 -1.80024431E-01  7.75053678E-01  0.00000000E+00  0.00000000E+00  2.27081978E-01
  1.80024431E-01 -7.75053678E-01  0.00000000E+00  0.00000000E+00  2.27081978E-01
  0.00000000E+00  0.00000000E+00  0.00000000E+00  6.26797548E-01  0.00000000E+00
  0.00000000E+00  0.00000000E+00  0.00000000E+00  6.26797548E-01  0.00000000E+00
  0.00000000E+00  0.00000000E+00  6.26797548E-01  0.00000000E+00  0.00000000E+00
  0.00000000E+00  0.00000000E+00  6.26797548E-01  0.00000000E+00  0.00000000E+00
 -8.01930040E-02  4.28599554E-01  0.00000000E+00  0.00000000E+00  5.91527947E-01
 -8.01930040E-02  4.28599554E-01  0.00000000E+00  0.00000000E+00 -5.91527947E-01
  0.00000000E+00  0.00000000E+00  0.00000000E+00  8.29122918E-01  0.00000000E+00
  0.00000000E+00  0.00000000E+00  0.00000000E+00 -8.29122918E-01  0.00000000E+00
  0.00000000E+00  0.00000000E+00  8.29122918E-01  0.00000000E+00  0.00000000E+00
  0.00000000E+00  0.00000000E+00 -8.29122918E-01  0.00000000E+00  0.00000000E+00
  1.24787189E-01 -1.13749187E+00  0.00000000E+00  0.00000000E+00  1.19866068E+00
 -1.24787189E-01  1.13749187E+00  0.00000000E+00  0.00000000E+00  1.19866068E+00
Total SCF Density                          R   N=          55
  2.10697009E+00 -4.36589043E-01  2.01894560E+00 -1.61455646E-18  9.28888455E-18
  7.85750331E-01 -1.61455646E-18  9.28888455E-18  1.08426361E-49  7.85750331E-01
 -1.05470832E-01  6.06795987E-01  2.43083082E-18  2.43083082E-18  9.44544251E-01
  1.21124019E-02  1.54286996E-02  1.49898045E-18  1.49898045E-18  9.79208338E-02
  2.10697009E+00  1.54286996E-02 -3.89615061E-01 -1.45510101E-18 -1.45510101E-18
 -9.50544117E-02 -4.36589043E-01  2.01894560E+00 -1.49898045E-18  1.45510101E-18
  7.85750331E-01 -8.46558942E-50 -2.33175933E-17  1.61455646E-18 -9.28888455E-18
  7.85750331E-01 -1.49898045E-18  1.45510101E-18  0.00000000E+00  7.85750331E-01
 -2.33175933E-17  1.61455646E-18 -9.28888455E-18  1.08426361E-49  7.85750331E-01
 -9.79208338E-02  9.50544117E-02 -2.33175933E-17 -2.33175933E-17 -7.37470460E-01
  1.05470832E-01 -6.06795987E-01  2.43083082E-18  2.43083082E-18  9.44544251E-01
Mulliken Charges                           R   N=           2
  4.10782519E-15  4.44089210E-15
Dipole Moment                              R   N=           3
  5.91645679E-31  0.00000000E+00 -4.44089189E-16
Quadrupole Moment                          R   N=           6
  5.81847125E-01  5.81847125E-01 -1.16369425E+00  1.47497897E-33  3.35508894E-17
 -1.46665387E-17
